/*--------------------------------*- C++ -*----------------------------------*\
| =========                 |                                                 |
| \\      /  F ield         | OpenFOAM: The Open Source CFD Toolbox           |
|  \\    /   O peration     | Version:  v1706                                 |
|   \\  /    A nd           | Web:      www.OpenFOAM.com                      |
|    \\/     M anipulation  |                                                 |
\*---------------------------------------------------------------------------*/
FoamFile
{
    version     2.0;
    format      ascii;
    class       volScalarField;
    location    "0";
    object      k;
}
// * * * * * * * * * * * * * * * * * * * * * * * * * * * * * * * * * * * * * //

dimensions      [0 2 -2 0 0 0 0];


internalField   nonuniform List<scalar> 
61440
(
1.10271e-05
7.83758e-06
7.48046e-06
5.12266e-06
5.22339e-06
7.11122e-06
1.16657e-05
2.75271e-05
2.4164e-05
5.52796e-06
3.71682e-06
4.25793e-06
4.90896e-06
5.29733e-06
5.9478e-06
5.4334e-06
5.29785e-06
5.61367e-06
5.35976e-06
5.9556e-06
8.35266e-06
1.68595e-05
1.68484e-05
1.76773e-05
9.73226e-06
7.55077e-06
7.96485e-06
1.349e-05
1.85096e-05
1.8813e-05
1.57941e-05
1.22563e-05
0.000111616
9.16881e-05
8.26626e-05
6.52771e-05
6.4268e-05
9.59575e-05
0.000198915
0.000282242
0.000285554
9.33349e-05
5.40716e-05
3.80049e-05
4.405e-05
5.93265e-05
5.47873e-05
6.02042e-05
6.26743e-05
6.41736e-05
6.07887e-05
6.29931e-05
8.85989e-05
0.000134837
0.000171371
0.000179648
0.000110847
0.000144158
8.79895e-05
0.000116707
0.000214249
0.000238332
0.000199154
0.000135695
0.00025688
0.000190719
0.000170592
0.000132956
0.000156324
0.000226077
0.000503787
0.000330693
0.000246903
0.000117913
8.90568e-05
7.81162e-05
9.53797e-05
0.000135178
0.000137335
0.00012561
0.000127816
0.000127987
0.000123126
0.000141221
0.000181475
0.000277791
0.000183405
0.000363754
0.000236725
0.000223916
0.000178899
0.000335695
0.000437782
0.000490252
0.000369439
0.000279434
0.000768517
0.000545761
0.000421748
0.000363025
0.000413676
0.000589639
0.000983607
0.00104847
0.00166713
0.00106619
0.000274873
0.000218807
0.000259625
0.000366613
0.000383092
0.000294693
0.000350345
0.000355301
0.000340036
0.000334136
0.000566372
0.000761254
0.000505499
0.000561121
0.000837059
0.00085925
0.00048315
0.000618212
0.0011849
0.00140122
0.00125326
0.000793658
0.00156208
0.00116597
0.00101658
0.00076651
0.000810668
0.0010906
0.00167947
0.00280259
0.00349169
0.00274446
0.000824193
0.000459205
0.000483359
0.000635003
0.000737968
0.000588245
0.000660324
0.000651338
0.000680429
0.000655695
0.000960265
0.00144238
0.00101398
0.00100734
0.00151818
0.000973565
0.000868607
0.0011136
0.00239636
0.00262073
0.00276766
0.00189154
0.00209713
0.00158362
0.00120883
0.000950707
0.00104227
0.00121401
0.00170584
0.00256885
0.00236997
0.00188949
0.000698625
0.00067341
0.00066646
0.000805603
0.000936073
0.000759548
0.000835132
0.000881837
0.000884949
0.000855104
0.000939501
0.00151693
0.00174466
0.00126282
0.00144709
0.00230115
0.0012214
0.00134203
0.0026866
0.00405723
0.00483995
0.0027669
0.00311709
0.00255195
0.00196285
0.00145728
0.00142176
0.00183203
0.00221472
0.00357079
0.00327266
0.00315558
0.00228063
0.000934629
0.000979446
0.00123973
0.00143973
0.00114648
0.00118841
0.00118094
0.00125236
0.00123066
0.0013555
0.00190905
0.00205239
0.00178194
0.00216222
0.0029833
0.00180193
0.00171723
0.00313113
0.00484453
0.00552341
0.00383396
0.00387024
0.00309196
0.00260747
0.00195197
0.00160341
0.00200394
0.00232149
0.00395243
0.00392929
0.00289149
0.00291533
0.00117239
0.00119654
0.00122144
0.00157995
0.0014058
0.00130331
0.00128972
0.00137071
0.00134358
0.00123459
0.00159558
0.00189271
0.0022059
0.00229103
0.00220229
0.00156387
0.00160103
0.0020733
0.00514097
0.00841781
0.00636455
0.00559909
0.00378881
0.00295142
0.00237596
0.00191365
0.00215208
0.00262822
0.00323849
0.00499577
0.0042184
0.0021192
0.0016319
0.00141689
0.00140654
0.00164297
0.00162525
0.00148893
0.00136021
0.00151076
0.00178863
0.00132054
0.00145143
0.00174759
0.00209811
0.00221273
0.00237035
0.00182653
0.00170053
0.00200133
0.00457365
0.0058247
0.00549391
0.00464399
0.00446095
0.00354024
0.0028698
0.00206829
0.00226258
0.00268365
0.00321749
0.0038687
0.00396742
0.0024935
0.00186278
0.00160072
0.00149412
0.00160535
0.00180286
0.00154359
0.00135553
0.00147661
0.00192574
0.0019135
0.00199105
0.0029273
0.00265767
0.00250884
0.00318912
0.00311933
0.00263362
0.00199837
0.00291929
0.00587633
0.00553646
0.00435011
0.0042827
0.00366864
0.00322706
0.00251615
0.00238302
0.00264618
0.00316553
0.00305487
0.00393539
0.0031401
0.00244836
0.00198473
0.00163191
0.00155334
0.00134045
0.00154253
0.00133458
0.00158948
0.00199675
0.00226063
0.00205189
0.00147489
0.00296028
0.00281398
0.00352424
0.00362373
0.00325577
0.00302782
0.00322644
0.00440882
0.00501354
0.00370843
0.00353124
0.00320296
0.0032788
0.00247062
0.00200285
0.00202109
0.00206099
0.00255984
0.00388941
0.00344903
0.00307413
0.00245815
0.0019682
0.0014163
0.00133077
0.00134307
0.00128303
0.00134356
0.00131636
0.00157642
0.00147998
0.00147795
0.00160441
0.00189267
0.00230277
0.00224657
0.00209203
0.00179506
0.00160022
0.00319045
0.0040262
0.00334611
0.0028171
0.0024295
0.00267906
0.00285107
0.00232155
0.00239224
0.0022922
0.00236429
0.00278256
0.00348838
0.00314484
0.00251403
0.0019916
0.00159718
0.00141913
0.00133345
0.00131429
0.0018249
0.00157742
0.00227664
0.00249379
0.00209462
0.0027922
0.00311594
0.00329016
0.00223947
0.00203044
0.0032933
0.00240994
0.00257865
0.00334298
0.00300944
0.00217333
0.0023001
0.00266571
0.00278747
0.00233552
0.00227588
0.00203185
0.00198679
0.00339082
0.00307099
0.00297311
0.00262202
0.00236152
0.00205326
0.0016839
0.00141445
0.00130019
0.00126396
0.00159696
0.00240304
0.0026091
0.00216764
0.00273501
0.00297125
0.00212159
0.00214405
0.00188838
0.0017338
0.00199399
0.00259596
0.0024801
0.00259761
0.00218493
0.00200649
0.00241845
0.00269743
0.00228005
0.00224577
0.00170432
0.00181219
0.00324506
0.0029851
0.00277261
0.00291202
0.00213758
0.00228073
0.00182084
0.0014811
0.00132951
0.00130727
0.00124654
0.00150893
0.00160081
0.00139189
0.00140199
0.00279457
0.0030793
0.00302693
0.00307577
0.00287939
0.00186228
0.00255123
0.00237325
0.00238026
0.00190341
0.00198168
0.00195575
0.00197506
0.00201777
0.00220701
0.00176312
0.00189507
0.00299609
0.00240055
0.00242653
0.00300287
0.00290258
0.00288598
0.00192612
0.00173006
0.00161655
0.00125757
0.00130979
0.00175119
0.00231785
0.00148622
0.00145123
0.00132281
0.00151157
0.00209105
0.0019666
0.00146578
0.00116176
0.00234898
0.00355493
0.00206876
0.00138775
0.00184012
0.00241218
0.00196971
0.0020052
0.00179739
0.00181194
0.00167479
0.00227378
0.00265304
0.00239588
0.00259128
0.00244074
0.00312219
0.00218366
0.00195665
0.00151727
0.00145013
0.00128354
0.00163772
0.0021091
0.00204149
0.002009
0.00188103
0.00120978
0.00174179
0.00263911
0.00208245
0.0017498
0.00229332
0.00269963
0.00123239
0.00138333
0.00293975
0.00308332
0.00214087
0.00204235
0.00199271
0.00157952
0.00104143
0.00221886
0.00164019
0.00248263
0.00238553
0.00255976
0.00281216
0.00240222
0.00202125
0.00153968
0.0013996
0.00130726
0.00146694
0.00162426
0.00182746
0.00182238
0.00140031
0.00194074
0.00234758
0.0024881
0.00208699
0.0012803
0.00137332
0.00185032
0.00060009
0.000718272
0.00221469
0.00287313
0.00282512
0.0025526
0.0021651
0.0016442
0.00101272
0.000985781
0.00116
0.00206536
0.00237294
0.00220531
0.00170698
0.00186392
0.00195187
0.0015588
0.0014778
0.00138475
0.00147
0.00158788
0.00193524
0.00219422
0.00178554
0.00171778
0.00137379
0.00165407
0.00162271
0.00118422
0.00103306
0.000753272
0.000594003
0.000538133
0.000538693
0.000863055
0.00319218
0.0034425
0.00251471
0.00139643
0.000899363
0.000815857
0.000878114
0.00125564
0.00226318
0.0015663
0.000965376
0.00139075
0.00172221
0.00164959
0.00156517
0.00155693
0.00144379
0.00174158
0.00190047
0.00177301
0.00191669
0.0015189
0.00166583
0.00135109
0.00154297
0.0015046
0.00121367
0.000892313
0.0006419
0.000515499
0.000475098
0.000548493
0.00168902
0.00341232
0.00308218
0.00184584
0.00129097
0.00130444
0.0012933
0.00135226
0.00120203
0.00112881
0.000770048
0.00127682
0.00146525
0.00149493
0.00161166
0.00142677
0.00137581
0.00169958
0.00159825
0.00143743
0.00109043
0.00118095
0.00127348
0.00124414
0.00125165
0.00129748
0.00113455
0.000718055
0.000570535
0.00043935
0.000410209
0.000436414
0.000652026
0.00114597
0.00239459
0.00200257
0.0014331
0.00104124
0.000819433
0.000528103
0.00064664
0.00058987
0.000619523
0.000780852
0.000982279
0.00126787
0.00124551
0.00134312
0.00137903
0.00166859
0.00151266
0.00133371
0.00118764
0.00103888
0.00103249
0.00103223
0.00110079
0.0011177
0.000849855
0.000698066
0.000624923
0.000416466
0.000395569
0.000440269
0.000556597
0.000700135
0.00143568
0.00184007
0.00146011
0.00107227
0.000883275
0.000466546
0.000456539
0.000484191
0.000476143
0.000507997
0.000687808
0.000870669
0.00112698
0.00128385
0.0014188
0.00116275
0.000737079
0.000662791
0.000667264
0.000852959
0.000929284
0.000926358
0.000978019
0.000986336
0.000911495
0.000672411
0.000535712
0.000413652
0.000383116
0.000534247
0.000489817
0.000465786
0.000521091
0.00108945
0.00129711
0.00082132
0.000660335
0.000431755
0.00039572
0.000381118
0.000371362
0.000482915
0.000514463
0.00048759
0.000729502
0.00107095
0.00117285
0.00096557
0.000691838
0.000531021
0.000683685
0.000798082
0.000739112
0.000782249
0.000830014
0.000812241
0.000576502
0.000542176
0.000450089
0.000432165
0.000375163
0.000332507
0.000333741
0.000330179
0.000359259
0.00075223
0.000712396
0.000660988
0.000486713
0.000437391
0.000406172
0.000362387
0.000304658
0.000363006
0.000373622
0.000353852
0.000451901
0.00067269
0.000657772
0.000608639
0.000524761
0.000439255
0.000482668
0.000640027
0.000700453
0.000696062
0.000707588
0.000602118
0.000492593
0.00042857
0.000391224
0.00038464
0.000334185
0.000282104
0.000269161
0.000322844
0.000315713
0.000617145
0.000702206
0.00058987
0.000516747
0.000470485
0.000419313
0.000404235
0.000393402
0.000336583
0.0003352
0.000375556
0.000345498
0.000427585
0.000406577
0.000430629
0.000431037
0.000399241
0.000400916
0.00051897
0.000726964
0.000717777
0.00066946
0.000596995
0.000425289
0.000399002
0.000400604
0.000374677
0.000286615
0.000241463
0.000215595
0.000221972
0.000254454
0.000331886
0.000493199
0.000481644
0.000440145
0.00031855
0.000236036
0.000280946
0.000315679
0.000264762
0.000227982
0.000219467
0.000289242
0.00031928
0.000299136
0.000275992
0.000270797
0.000237446
0.00023956
0.000291819
0.000520134
0.000584807
0.000629657
0.000517139
0.000426472
0.000403351
0.000430916
0.000397537
0.000272095
0.000206499
0.00019237
0.000220146
0.000256898
0.000313437
0.000407331
0.000377055
0.000336057
0.000193574
0.00019354
0.000215489
0.000270853
0.000194223
0.000164028
0.000161036
0.000206399
0.000269672
0.000242
0.000254336
0.000233314
0.000209986
0.000209652
0.000251653
0.000321604
0.000408026
0.00049091
0.000447689
0.000451001
0.000427204
0.000252244
0.000219471
0.00019796
0.00017724
0.000171305
0.000178194
0.000230765
0.000273911
0.000294014
0.000279594
0.000206638
0.000164299
0.000189254
0.000186014
0.00018551
0.000163353
0.000147454
0.000138882
0.000137532
0.0001477
0.000176095
0.00020156
0.000219251
0.00020993
0.000208318
0.000229074
0.000218258
0.000209635
0.000218071
0.00028333
0.000281044
0.000282071
0.000169644
0.000169702
0.000180916
0.000190299
0.000191711
0.000194284
0.000242465
0.000272306
0.000268513
0.000218193
0.000172462
0.000172729
0.000237316
0.000260515
0.000313234
0.000236404
0.000191497
0.000177824
0.000177423
0.00020301
0.000207118
0.000215745
0.000180963
0.000156816
0.000165155
0.000283154
0.000223069
0.000190869
0.000216343
0.000178398
0.000185794
0.00018148
3.91503e-06
4.26409e-06
5.95534e-06
8.61015e-06
9.26922e-06
7.54384e-06
7.42566e-06
1.07415e-05
1.53542e-05
7.89789e-06
3.94908e-06
3.04367e-06
2.16475e-06
3.1401e-06
3.41514e-06
4.27623e-06
3.54097e-06
3.71458e-06
4.11128e-06
7.00109e-06
8.68956e-06
5.54448e-06
6.24173e-06
6.92332e-06
1.62341e-05
2.38805e-05
5.67919e-06
7.9826e-06
9.33263e-06
9.57111e-06
1.04997e-05
4.97778e-06
5.19465e-05
5.1618e-05
4.75724e-05
4.85072e-05
5.77507e-05
5.66328e-05
7.11539e-05
9.50022e-05
7.30161e-05
5.47214e-05
3.68089e-05
3.72784e-05
2.90729e-05
3.07562e-05
4.21849e-05
4.52674e-05
4.98086e-05
8.39547e-05
5.34859e-05
5.61583e-05
6.59916e-05
7.54687e-05
7.59325e-05
0.000107886
0.000207059
0.000184733
7.42479e-05
7.39097e-05
0.000117503
0.00012326
0.000126402
0.00010765
0.000190389
0.00014966
0.000118064
0.000108329
0.000118914
0.00011685
0.000145816
0.00017853
0.0001872
0.000195182
0.000100926
7.66141e-05
7.80174e-05
7.90225e-05
8.06847e-05
0.000109155
0.000129761
9.99394e-05
0.000110913
0.000125105
0.000213952
0.000156807
0.000229218
0.000245116
0.000539107
0.000228307
0.000132021
0.00020203
0.000226824
0.000242018
0.000189394
0.000219309
0.000324639
0.000307023
0.000369692
0.000302356
0.000616443
0.000507906
0.000490643
0.00069731
0.000465993
0.000278594
0.000226169
0.000214715
0.000167856
0.000177336
0.000195211
0.000300706
0.00028619
0.000501548
0.000579726
0.000499671
0.000599196
0.000672994
0.000428374
0.000629655
0.00115429
0.00100314
0.000376087
0.000414733
0.000688856
0.00063822
0.000749802
0.000406914
0.00080673
0.000716771
0.00061807
0.00057187
0.000699088
0.000664671
0.000795236
0.00131377
0.00222009
0.00121501
0.000524132
0.000457256
0.000361783
0.000381181
0.000398843
0.0006018
0.000741137
0.000622925
0.000656288
0.000762012
0.00126097
0.00145656
0.00139383
0.00132538
0.00220436
0.00273318
0.00100285
0.00102632
0.0013288
0.00156824
0.0014848
0.00116607
0.0011065
0.000948919
0.000874815
0.00138903
0.000932172
0.000882715
0.00103695
0.00227973
0.00276542
0.00183849
0.00129181
0.000684041
0.000487667
0.000496827
0.000530027
0.000853815
0.000673528
0.000793776
0.000888084
0.00104784
0.00171438
0.00188493
0.00178115
0.0017559
0.00276932
0.00375644
0.00120005
0.00105922
0.00200419
0.00205575
0.00229831
0.00143475
0.00216392
0.00235292
0.0012872
0.00188947
0.00140293
0.0013393
0.00154323
0.00217823
0.00458598
0.00190373
0.00292572
0.00156808
0.000819655
0.000803859
0.000966086
0.00113099
0.00148671
0.002531
0.00260486
0.00178028
0.00284464
0.00253109
0.00277438
0.00194238
0.00375928
0.00502417
0.00291749
0.00204912
0.00266439
0.00317986
0.00350251
0.00304958
0.00286772
0.00264663
0.00178822
0.00205321
0.00259903
0.00197722
0.00188697
0.002319
0.00530706
0.00522928
0.00368674
0.00179707
0.00115035
0.00103539
0.00109695
0.00127994
0.00171631
0.00265496
0.00174358
0.00284321
0.00348334
0.00308228
0.00329643
0.00227961
0.00394268
0.00616599
0.00275443
0.00250475
0.0030425
0.00431191
0.00701763
0.00433756
0.00430932
0.00359523
0.00227281
0.00189801
0.00209279
0.00271399
0.00219712
0.00260351
0.00558415
0.00651188
0.00375258
0.00249039
0.00202542
0.0013441
0.00132493
0.00151706
0.00239786
0.00213604
0.00229171
0.00341795
0.00331793
0.00375032
0.00267608
0.00472665
0.00356067
0.00811184
0.00452275
0.00309422
0.00293205
0.00514748
0.00781364
0.00973901
0.00568374
0.00425031
0.00265034
0.00235413
0.00223004
0.00222596
0.00248
0.00271082
0.00516989
0.00723079
0.00455421
0.00325863
0.00217977
0.00145375
0.00149046
0.00179256
0.00170084
0.0023596
0.0026161
0.00418787
0.00548271
0.00455104
0.00449193
0.00529238
0.00549596
0.00702919
0.00695893
0.00380894
0.00358676
0.00463312
0.0052747
0.00541935
0.00632832
0.00521456
0.00455811
0.00308156
0.00282252
0.00300115
0.00242886
0.00284938
0.00353676
0.0042189
0.00947256
0.00797182
0.00323699
0.00193629
0.00184235
0.00185346
0.00186907
0.00338281
0.00416295
0.00386825
0.00614835
0.00505679
0.00510414
0.0039592
0.00485819
0.00910259
0.00722461
0.00439045
0.00346836
0.00462024
0.00962257
0.0110923
0.00747631
0.00604531
0.0057412
0.00395762
0.00327549
0.00306531
0.00255754
0.00300859
0.00321695
0.00386827
0.00779352
0.00920389
0.00526483
0.00205613
0.00177186
0.00224884
0.00256939
0.00308563
0.00325119
0.00319596
0.0056566
0.00564863
0.00546042
0.00643205
0.00913582
0.0090394
0.00920357
0.00723746
0.0044012
0.00385552
0.00482246
0.0101684
0.00757952
0.00565919
0.00438315
0.003554
0.00272792
0.00262114
0.00256042
0.00282058
0.00316189
0.00331256
0.00461441
0.00617201
0.00499964
0.00222189
0.00194517
0.00257862
0.00252985
0.00293682
0.00335976
0.00295914
0.00455847
0.00485834
0.00519618
0.00620708
0.00667523
0.00659587
0.00776769
0.00686811
0.00499497
0.00360715
0.00484637
0.00805127
0.00642656
0.0054831
0.00582689
0.00524415
0.00365952
0.00302662
0.00235672
0.002601
0.00326181
0.00301586
0.00382562
0.00516063
0.00648904
0.00493932
0.00333795
0.00395934
0.00216887
0.00264232
0.00372577
0.00326506
0.00309029
0.00461025
0.00402934
0.00460092
0.00780879
0.00998818
0.00639231
0.0072728
0.00515064
0.00328138
0.00384017
0.00625008
0.00542608
0.00484988
0.00296519
0.00539096
0.00384898
0.00264219
0.00229224
0.00236082
0.00314043
0.0030884
0.00288529
0.00393434
0.00600262
0.00349916
0.00260206
0.00319286
0.0034602
0.0025513
0.00308496
0.00275446
0.00272526
0.00381871
0.00429137
0.00445599
0.00512058
0.00917589
0.0071664
0.00725474
0.00536458
0.00306179
0.00338325
0.00505997
0.00377655
0.00342735
0.00357048
0.00460282
0.00378611
0.00253215
0.00214289
0.00243952
0.00305602
0.00281101
0.00249661
0.0030938
0.00382144
0.00307128
0.00290357
0.003986
0.00286321
0.00229025
0.00259403
0.00252975
0.00214752
0.00231761
0.00344135
0.00343167
0.00387116
0.004463
0.0054432
0.00546037
0.00437019
0.00297302
0.00284721
0.00438684
0.00253854
0.00218826
0.00278271
0.0039946
0.00318005
0.00224225
0.00204047
0.0021463
0.00263557
0.00273529
0.00231552
0.00213138
0.00230107
0.00302275
0.00277136
0.00385137
0.00544119
0.00325452
0.00224274
0.00233038
0.0019696
0.00194043
0.0024982
0.00274788
0.00290285
0.00284774
0.00337913
0.00347224
0.00408254
0.00301553
0.00241954
0.00276253
0.00186898
0.0017428
0.00242319
0.00431748
0.00367309
0.00291788
0.00202526
0.00192667
0.00248268
0.00263492
0.002433
0.00209429
0.00203697
0.00224234
0.00259283
0.00280525
0.00453892
0.00338167
0.00188721
0.00206887
0.00185106
0.00191778
0.00240141
0.00243026
0.00256983
0.00259218
0.00369853
0.00397212
0.00368541
0.00308657
0.00203821
0.00203185
0.00144966
0.00118829
0.00137503
0.00197393
0.00441361
0.00345796
0.00224693
0.00192805
0.0021045
0.00234384
0.00237248
0.00206593
0.0018416
0.00167839
0.00182004
0.00166436
0.00210944
0.00277361
0.00168049
0.00168333
0.0017596
0.00194477
0.00227285
0.00211059
0.00213276
0.0022184
0.00247792
0.00256921
0.00322876
0.00250981
0.00243337
0.00203312
0.000803648
0.000639364
0.000663385
0.00114362
0.00377035
0.00445445
0.00265536
0.00184162
0.00200965
0.00206504
0.00203485
0.00206996
0.00176437
0.000998127
0.000943368
0.000875491
0.00122835
0.00189193
0.00178941
0.0016479
0.00163149
0.00222425
0.00244064
0.00216381
0.00198343
0.00182239
0.0017991
0.0025518
0.00195919
0.00253786
0.00234903
0.00198935
0.00127404
0.000727268
0.000683779
0.000608509
0.00184271
0.00345158
0.00279069
0.0019307
0.00190667
0.00183618
0.00181608
0.00169238
0.00143396
0.000790067
0.000648801
0.000712952
0.00101217
0.00187141
0.00169292
0.00137539
0.00152139
0.00189198
0.00252549
0.00222125
0.00193047
0.00171158
0.00170373
0.00198571
0.00230152
0.00177964
0.00219475
0.00199235
0.0012481
0.000795421
0.000396495
0.000571009
0.000545221
0.00091717
0.00214315
0.00227988
0.00174166
0.00170305
0.00161557
0.0012778
0.000910268
0.000532745
0.000446173
0.000463454
0.000653363
0.00121532
0.00133615
0.0014347
0.00138904
0.00185642
0.00193531
0.00183368
0.00150467
0.00146256
0.00124567
0.00120303
0.00137973
0.00178269
0.0020407
0.00195052
0.00147964
0.000749239
0.000439445
0.000487961
0.000419449
0.000471728
0.00174842
0.00195733
0.00170169
0.00168818
0.00138038
0.000774838
0.000614892
0.000426086
0.000388074
0.000352497
0.000484321
0.000543793
0.00127733
0.00137607
0.00145177
0.00145309
0.00130812
0.00149747
0.00164082
0.00133344
0.00113377
0.000966764
0.00100065
0.0011651
0.00145329
0.00189025
0.000806052
0.000467845
0.000383884
0.00031853
0.000300471
0.000297577
0.000429388
0.00089549
0.00156061
0.00155379
0.00103906
0.00053575
0.00043116
0.000375063
0.000343646
0.000324488
0.000328609
0.000397578
0.000914524
0.00113608
0.00131491
0.00117087
0.000984135
0.0010046
0.00108782
0.00111499
0.00108424
0.00087454
0.000741698
0.000732339
0.000876767
0.000874742
0.000465073
0.000415832
0.00037311
0.000287458
0.000255458
0.000259341
0.00027958
0.000506481
0.000824871
0.000768071
0.000681284
0.00047709
0.000372227
0.000396841
0.000405209
0.000350044
0.000307954
0.000301992
0.000426816
0.000504454
0.000469591
0.000630306
0.000605966
0.000599511
0.000659966
0.000753883
0.000879654
0.000824026
0.000674822
0.000599076
0.000528526
0.000497189
0.000456987
0.000402242
0.000369615
0.000266435
0.000253434
0.000245912
0.000275253
0.000477238
0.000620876
0.000576305
0.000536597
0.000474749
0.0004189
0.000410985
0.000458185
0.00041721
0.000307059
0.000283312
0.000352264
0.00033846
0.000358163
0.000401946
0.000506249
0.000445298
0.000526941
0.000522624
0.000777694
0.000742177
0.000664582
0.000589491
0.000496952
0.000522148
0.000425226
0.00040995
0.000364041
0.000255943
0.000222395
0.000227407
0.000242979
0.000393519
0.000488025
0.000468069
0.000457048
0.000471581
0.000490351
0.00053067
0.000587351
0.000552294
0.000339834
0.000270208
0.000232221
0.000272471
0.000224368
0.000219562
0.000249959
0.000254994
0.000276455
0.000295889
0.000509881
0.00066062
0.000654141
0.000473234
0.000434484
0.000442807
0.000429328
0.000395305
0.000327669
0.000220633
0.00021482
0.000230904
0.000252209
0.000419576
0.000437027
0.000386316
0.000311141
0.000261081
0.000257027
0.000331335
0.000427887
0.000488486
0.000320348
0.000220407
0.000194756
0.000204572
0.000203342
0.000197242
0.000209983
0.000215384
0.00022608
0.000256637
0.000349049
0.000476953
0.000563523
0.000484914
0.000425068
0.000430267
0.000240332
0.00023009
0.000207745
0.000183858
0.000178468
0.000202339
0.000241771
0.000356812
0.000376924
0.000341166
0.000271112
0.000209366
0.000215903
0.000220617
0.000215665
0.000202194
0.000186022
0.00016894
0.000143075
0.000147661
0.000181214
0.000198285
0.000200394
0.000198782
0.000208208
0.00027702
0.000233201
0.000240429
0.000257293
0.000284269
0.000285643
0.000273565
0.000150467
0.000139931
0.000144169
0.000172979
0.000160102
0.000212921
0.000272366
0.000297711
0.000291563
0.000257548
0.000214591
0.000194321
0.000286187
0.000328566
0.000319396
0.000246627
0.000200006
0.000171978
0.000167738
0.000195915
0.000244102
0.000261443
0.000230818
0.000230009
0.000336206
0.000485468
0.000502849
0.000396527
0.000300635
0.0002173
0.000185653
0.000169083
4.21424e-06
5.05999e-06
9.73485e-06
1.29654e-05
1.43452e-05
1.10116e-05
1.0174e-05
1.63112e-05
1.49183e-05
1.34852e-05
9.82066e-06
7.18522e-06
7.97127e-06
7.96424e-06
1.01621e-05
1.47433e-05
1.79404e-05
2.56214e-05
1.73106e-05
1.18414e-05
1.71301e-05
2.66289e-05
2.44566e-05
4.00948e-05
7.29474e-06
4.00549e-06
6.56618e-06
8.30836e-06
6.78391e-06
4.13615e-06
5.57362e-06
5.36394e-06
4.79802e-05
5.41239e-05
0.000105359
0.000161333
0.000141787
0.000141179
0.000131991
0.000190538
0.000241791
0.000167396
6.70174e-05
8.45745e-05
4.92733e-05
5.34132e-05
7.95236e-05
0.000113446
0.000140112
0.000291958
0.000418962
0.000271785
0.000240488
0.00030975
0.000483936
0.000439613
8.99816e-05
6.2945e-05
5.55518e-05
9.34629e-05
6.27138e-05
6.0673e-05
5.54025e-05
5.53303e-05
9.33309e-05
0.000104252
0.000212397
0.000310209
0.000330697
0.000287773
0.000271072
0.000383292
0.000491972
0.000298298
0.000143438
9.59304e-05
0.000102124
0.000117538
0.000136425
0.000252935
0.000285506
0.000472428
0.000494632
0.000314184
0.000492484
0.000511575
0.000627082
0.000482591
0.000188805
0.000105391
0.000144059
0.00018322
0.000167853
0.000110898
0.000135008
0.000136912
0.000270075
0.000358668
0.000554055
0.000861521
0.000906965
0.000779051
0.000786533
0.000934233
0.00121154
0.000921879
0.000545057
0.000485412
0.000289381
0.000304618
0.00036679
0.000958275
0.0010664
0.00159969
0.00237443
0.000974558
0.00127232
0.00152351
0.00158549
0.00150092
0.000559962
0.000306445
0.000380739
0.000516755
0.000479171
0.000377698
0.000382699
0.000370938
0.000539321
0.000565703
0.00102373
0.00162509
0.00177334
0.00173604
0.00145019
0.00176518
0.00276771
0.00247992
0.00115589
0.000609813
0.000607333
0.000620447
0.000809154
0.00111854
0.00186855
0.00227171
0.00322228
0.00220259
0.0018629
0.00280569
0.00283928
0.00333559
0.00127664
0.000634518
0.00064609
0.00101121
0.00102732
0.000864267
0.000952761
0.000861292
0.000731033
0.000869336
0.00126572
0.00190772
0.00237476
0.00235739
0.00172472
0.0025544
0.00350397
0.00268838
0.00115004
0.000854307
0.000797017
0.000819102
0.00135062
0.00180388
0.0021934
0.0035332
0.00432189
0.00254475
0.00237281
0.00307314
0.00347513
0.00441843
0.00180088
0.00133773
0.000795567
0.000931842
0.00102418
0.00122937
0.00209192
0.00125598
0.0013985
0.00124414
0.00145998
0.0024574
0.00369211
0.00261524
0.00230797
0.00246071
0.00512713
0.00492756
0.00345753
0.00156866
0.00183516
0.00124902
0.0013879
0.00166092
0.00212302
0.00268036
0.00640463
0.00688467
0.00455979
0.0038273
0.0045515
0.00611275
0.00314723
0.0023755
0.00149725
0.00202367
0.00229532
0.00209805
0.00503361
0.00473745
0.00163996
0.0014561
0.00180377
0.00213777
0.00427809
0.00403899
0.00332628
0.00369122
0.00548046
0.00635182
0.00342213
0.00209705
0.0014373
0.00182054
0.00179613
0.00190683
0.00210719
0.00291221
0.00447297
0.00689903
0.00417743
0.00371505
0.00492834
0.00905626
0.00308971
0.00191199
0.00156774
0.00201246
0.00276216
0.00275585
0.00460616
0.00681691
0.00272383
0.00208888
0.00214221
0.00376234
0.00325434
0.00349792
0.00427641
0.00465718
0.0051769
0.00697564
0.00554066
0.00315766
0.00180819
0.00177848
0.00179363
0.00184077
0.00227864
0.00342701
0.00510945
0.00638813
0.00492671
0.00404905
0.00525497
0.00707289
0.00573798
0.00383213
0.00250881
0.0023895
0.00341412
0.00254977
0.0042822
0.00604543
0.0026932
0.00193044
0.0021866
0.00380685
0.00451751
0.00361853
0.00307993
0.00297553
0.00476809
0.00747393
0.0069145
0.0035707
0.00245368
0.00219692
0.00200828
0.00199693
0.00209725
0.00207216
0.00317906
0.00621905
0.00528902
0.00414149
0.00517959
0.00521956
0.00850312
0.00377273
0.00374072
0.00224422
0.00350281
0.00454803
0.00777985
0.0103754
0.00540647
0.00238406
0.00258535
0.00387083
0.00442199
0.00529488
0.00500137
0.00572297
0.00662469
0.00557692
0.00574058
0.0050691
0.00329626
0.00256986
0.00234526
0.00218663
0.00214911
0.00213525
0.00196992
0.00472152
0.00474004
0.00418398
0.00535079
0.00723656
0.00914404
0.00546483
0.00476604
0.0032356
0.00333739
0.00490386
0.00540156
0.00890826
0.00543466
0.00318037
0.00495802
0.00605881
0.00468055
0.00350418
0.00308003
0.00330066
0.00434649
0.00431512
0.00604019
0.00444094
0.00379582
0.00296518
0.00258365
0.00249615
0.00226514
0.00170584
0.00191401
0.00409354
0.00319966
0.00209894
0.00242896
0.00307093
0.0102848
0.00736928
0.00297855
0.00387802
0.00311021
0.00416353
0.00751986
0.00860929
0.00599281
0.00368154
0.00416028
0.00728782
0.00553321
0.00339632
0.00452577
0.0039077
0.00719689
0.00417354
0.00576883
0.00633586
0.00398973
0.0031072
0.0031496
0.00275622
0.00254669
0.00213133
0.00222054
0.00338024
0.00367239
0.00323333
0.00304933
0.00527725
0.00835856
0.0056967
0.00549041
0.00355049
0.00311598
0.0039636
0.00575655
0.00797576
0.00599886
0.00481779
0.00508199
0.00732849
0.00493863
0.00352061
0.00363061
0.00429113
0.00605255
0.00438261
0.00284368
0.00305106
0.0036501
0.00413655
0.00303516
0.00300674
0.00267167
0.00200603
0.00154147
0.00153445
0.00236644
0.00217772
0.00228829
0.00322204
0.00845461
0.0100384
0.00542768
0.00294438
0.00327148
0.00345312
0.00443579
0.00559776
0.00543007
0.00482662
0.00612819
0.00738755
0.00538728
0.00361705
0.00316568
0.00370322
0.00507472
0.00477249
0.00257181
0.00274335
0.00312553
0.00279198
0.00393459
0.0039917
0.0034538
0.00217157
0.00189815
0.00200814
0.00139496
0.00196154
0.00170674
0.00216293
0.00378167
0.00699379
0.00562665
0.0042175
0.00341062
0.00332158
0.00430437
0.00504725
0.00394288
0.00446117
0.00513363
0.00505244
0.00514963
0.0029895
0.00255996
0.00267031
0.00299483
0.00309465
0.00179419
0.00165701
0.00316748
0.00355879
0.00346707
0.00387761
0.00253082
0.00270637
0.00182959
0.00165427
0.00146404
0.00143348
0.00204787
0.00214999
0.00271954
0.00478361
0.00394402
0.00307844
0.00267832
0.00318544
0.00353166
0.00338683
0.0023583
0.00265287
0.00268157
0.00337113
0.00411938
0.00378427
0.00224115
0.00218958
0.00237428
0.00235174
0.00198825
0.00162789
0.00171772
0.0021835
0.0025547
0.00171333
0.00194815
0.0020379
0.00161609
0.00116242
0.00107332
0.00124175
0.00178545
0.00197299
0.00192197
0.00360671
0.00405593
0.00478127
0.0036658
0.00244075
0.00314351
0.00314589
0.00256913
0.00306986
0.00214358
0.00269335
0.00381474
0.00307151
0.00232034
0.00201095
0.00207075
0.00201281
0.00170999
0.00157486
0.00126531
0.0013579
0.00148505
0.00213455
0.0029341
0.00200389
0.00138262
0.00149745
0.00132493
0.00120775
0.00133379
0.00192735
0.00178687
0.0024174
0.00437372
0.00460794
0.00414274
0.00303404
0.00280264
0.00263693
0.00181949
0.0016871
0.0016087
0.00187227
0.00210153
0.00290678
0.0022924
0.00179293
0.00134432
0.00161818
0.00132879
0.00135192
0.00151282
0.00126088
0.00139062
0.00128849
0.00146478
0.0018743
0.00164229
0.00141459
0.00118932
0.000814888
0.00117371
0.00201668
0.00141413
0.00177604
0.00389322
0.00371488
0.00376315
0.00274665
0.00244932
0.00242682
0.00203703
0.00199416
0.00218339
0.00164726
0.00141463
0.0025395
0.00231267
0.00165563
0.00164287
0.00123894
0.00147805
0.00134462
0.00142156
0.000868819
0.000802657
0.000739458
0.000654711
0.00125328
0.00105167
0.000993221
0.00071076
0.000681588
0.00119671
0.00143796
0.00140595
0.00140898
0.00288038
0.00376507
0.00362255
0.00276198
0.00228663
0.00199189
0.00187639
0.00188027
0.00133178
0.0012902
0.00141126
0.00188541
0.00197957
0.00184578
0.00138562
0.00134819
0.00147885
0.00133673
0.00129073
0.00101404
0.000688082
0.00057856
0.00048623
0.000676701
0.00134875
0.0013672
0.00105534
0.000624131
0.000962295
0.00195236
0.00176232
0.00138584