/*--------------------------------*- C++ -*----------------------------------*\
| =========                 |                                                 |
| \\      /  F ield         | OpenFOAM: The Open Source CFD Toolbox           |
|  \\    /   O peration     | Version:  v1706                                 |
|   \\  /    A nd           | Web:      www.OpenFOAM.com                      |
|    \\/     M anipulation  |                                                 |
\*---------------------------------------------------------------------------*/
FoamFile
{
    version     2.0;
    format      ascii;
    class       volScalarField;
    location    "0";
    object      nut;
}
// * * * * * * * * * * * * * * * * * * * * * * * * * * * * * * * * * * * * * //

dimensions      [0 2 -1 0 0 0 0];


internalField   nonuniform List<scalar> 
61440
(
4.53704e-09
3.24877e-09
3.2279e-09
2.26368e-09
2.26512e-09
2.94864e-09
4.40959e-09
9.74689e-09
8.76012e-09
2.3105e-09
1.74458e-09
1.96787e-09
2.22458e-09
2.33993e-09
2.59566e-09
2.4146e-09
2.39523e-09
2.47162e-09
2.42678e-09
2.66111e-09
3.52124e-09
6.46297e-09
6.46752e-09
6.75504e-09
3.92518e-09
3.21241e-09
3.38526e-09
5.20293e-09
6.66502e-09
6.58777e-09
5.70866e-09
4.92982e-09
1.0676e-07
9.09899e-08
8.35548e-08
6.84288e-08
6.61923e-08
9.23844e-08
1.72858e-07
2.3461e-07
2.38153e-07
9.15919e-08
5.89188e-08
4.327e-08
4.87309e-08
6.30753e-08
5.83798e-08
6.34862e-08
6.56362e-08
6.69646e-08
6.39156e-08
6.52235e-08
8.62995e-08
1.22959e-07
1.54267e-07
1.6091e-07
1.02189e-07
1.29658e-07
8.70213e-08
1.08414e-07
1.8328e-07
1.96842e-07
1.7059e-07
1.25928e-07
3.35428e-07
2.60727e-07
2.39339e-07
1.93792e-07
2.21053e-07
3.01971e-07
5.94743e-07
4.03845e-07
3.11704e-07
1.72044e-07
1.37823e-07
1.23723e-07
1.45793e-07
1.95665e-07
1.98637e-07
1.84085e-07
1.86534e-07
1.86156e-07
1.81617e-07
2.0392e-07
2.50778e-07
3.54792e-07
2.44952e-07
4.52073e-07
3.11744e-07
2.96951e-07
2.46919e-07
4.20308e-07
5.24039e-07
5.69555e-07
4.5276e-07
3.60886e-07
1.70079e-06
1.26583e-06
1.01631e-06
8.97761e-07
9.99243e-07
1.35228e-06
2.07662e-06
2.19707e-06
3.3218e-06
2.27604e-06
7.05582e-07
5.84693e-07
6.73135e-07
9.01959e-07
9.35835e-07
7.50522e-07
8.71785e-07
8.8202e-07
8.49687e-07
8.33623e-07
1.29753e-06
1.67526e-06
1.16427e-06
1.27342e-06
1.78755e-06
1.84266e-06
1.13985e-06
1.38999e-06
2.45632e-06
2.81015e-06
2.56458e-06
1.74621e-06
5.50078e-06
4.25323e-06
3.77776e-06
2.95638e-06
3.08838e-06
4.00363e-06
5.79168e-06
9.17491e-06
1.1163e-05
9.17252e-06
3.1697e-06
1.90099e-06
1.97791e-06
2.50147e-06
2.86818e-06
2.34612e-06
2.5817e-06
2.54683e-06
2.65951e-06
2.56575e-06
3.54782e-06
5.11257e-06
3.73399e-06
3.68841e-06
5.27328e-06
3.61502e-06
3.27822e-06
4.04245e-06
7.99111e-06
8.61871e-06
9.07361e-06
6.5018e-06
9.22321e-06
7.22102e-06
5.65766e-06
4.57663e-06
4.94745e-06
5.67417e-06
7.59989e-06
1.10092e-05
1.0093e-05
8.2287e-06
3.48664e-06
3.37761e-06
3.34671e-06
3.94287e-06
4.53272e-06
3.76097e-06
4.08205e-06
4.28359e-06
4.30002e-06
4.15729e-06
4.50045e-06
6.78433e-06
7.72603e-06
5.81873e-06
6.56319e-06
9.92665e-06
5.69548e-06
6.15028e-06
1.14221e-05
1.63531e-05
1.97232e-05
1.19459e-05
2.13998e-05
1.78436e-05
1.40651e-05
1.07034e-05
1.04579e-05
1.31091e-05
1.55483e-05
2.39759e-05
2.21747e-05
2.12374e-05
1.61763e-05
7.20224e-06
7.48796e-06
9.21647e-06
1.06241e-05
8.62903e-06
8.8859e-06
8.83154e-06
9.325e-06
9.16892e-06
9.93221e-06
1.34087e-05
1.4655e-05
1.28504e-05
1.51317e-05
2.03602e-05
1.29351e-05
1.23675e-05
2.10501e-05
3.16422e-05
3.57742e-05
2.57375e-05
3.24921e-05
2.6567e-05
2.27596e-05
1.74969e-05
1.45718e-05
1.77779e-05
2.02519e-05
3.27297e-05
3.27274e-05
2.46419e-05
2.52709e-05
1.09587e-05
1.11278e-05
1.13645e-05
1.43258e-05
1.30057e-05
1.20697e-05
1.19122e-05
1.26076e-05
1.23851e-05
1.14218e-05
1.42746e-05
1.66342e-05
1.92424e-05
1.99825e-05
1.93696e-05
1.41628e-05
1.444e-05
1.82172e-05
4.10323e-05
6.60824e-05
5.17168e-05
6.96092e-05
4.86241e-05
3.8728e-05
3.18305e-05
2.60163e-05
2.88818e-05
3.47705e-05
4.15014e-05
6.09188e-05
5.30618e-05
2.86821e-05
2.27316e-05
1.98956e-05
1.97086e-05
2.25082e-05
2.25085e-05
2.07448e-05
1.90051e-05
2.09147e-05
2.44922e-05
1.85008e-05
2.00968e-05
2.36573e-05
2.80026e-05
2.95012e-05
3.15829e-05
2.49022e-05
2.33196e-05
2.69915e-05
5.71786e-05
7.11094e-05
6.75153e-05
7.04833e-05
6.80605e-05
5.5436e-05
4.59495e-05
3.42078e-05
3.68597e-05
4.312e-05
5.04746e-05
6.00194e-05
6.1023e-05
4.04728e-05
3.10854e-05
2.71631e-05
2.53694e-05
2.69479e-05
3.00575e-05
2.61394e-05
2.31218e-05
2.49942e-05
3.19065e-05
3.17501e-05
3.25905e-05
4.64454e-05
4.29427e-05
4.06737e-05
5.00867e-05
4.9367e-05
4.25283e-05
3.28787e-05
4.5605e-05
8.65949e-05
8.20877e-05
9.42317e-05
9.29728e-05
8.14652e-05
7.30942e-05
5.88218e-05
5.57315e-05
6.11716e-05
7.13716e-05
6.8958e-05
8.68767e-05
7.10349e-05
5.72022e-05
4.75768e-05
3.98977e-05
3.81123e-05
3.32268e-05
3.77788e-05
3.31579e-05
3.88493e-05
4.7381e-05
5.29858e-05
4.88042e-05
3.62393e-05
6.74986e-05
6.46219e-05
7.82075e-05
8.00024e-05
7.32906e-05
6.89635e-05
7.22717e-05
9.52678e-05
0.000106174
0.000111267
0.000106862
9.8628e-05
0.00010077
7.9535e-05
6.62383e-05
6.67431e-05
6.77395e-05
8.10837e-05
0.0001164
0.000104553
9.49264e-05
7.9047e-05
6.56357e-05
4.92213e-05
4.65274e-05
4.68186e-05
4.50125e-05
4.68144e-05
4.60441e-05
5.3802e-05
5.10576e-05
5.07267e-05
5.39615e-05
6.26985e-05
7.45206e-05
7.29143e-05
6.84609e-05
5.95814e-05
5.40513e-05
9.73592e-05
0.000119237
0.000117167
0.000101597
8.98949e-05
9.75972e-05
0.000103125
8.70607e-05
8.90839e-05
8.58349e-05
8.72156e-05
0.000100143
0.000121304
0.000110859
9.32106e-05
7.68054e-05
6.36318e-05
5.75358e-05
5.44267e-05
5.36442e-05
7.07092e-05
6.25321e-05
8.4817e-05
9.14117e-05
7.92839e-05
0.000100215
0.000109438
0.000114585
8.40029e-05
7.69353e-05
0.00011469
8.86071e-05
9.32291e-05
0.000116626
0.000135713
0.000105585
0.000109908
0.000123171
0.000127957
0.000111996
0.000109567
0.000100226
9.69684e-05
0.000147205
0.000137543
0.000133905
0.000121994
0.000112916
0.000101365
8.65802e-05
7.514e-05
7.02825e-05
6.85784e-05
8.24351e-05
0.000113422
0.000120532
0.000104349
0.000124447
0.00013204
0.000103344
0.000104193
9.38992e-05
8.74804e-05
9.77719e-05
0.000118396
0.000116685
0.000133881
0.000117896
0.00011053
0.000126518
0.000137431
0.00012174
0.00012026
9.78313e-05
0.000100682
0.000155596
0.000147979
0.000140124
0.000144535
0.00011596
0.000121747
0.000102598
8.76667e-05
8.07533e-05
7.93721e-05
7.67057e-05
8.89978e-05
9.25893e-05
8.32073e-05
8.30573e-05
0.000138539
0.000148795
0.000148318
0.000147629
0.000141089
0.00010346
0.000128545
0.000124875
0.000145141
0.000126089
0.000129847
0.000128629
0.000129023
0.000131299
0.000139441
0.000119421
0.000124658
0.000168505
0.000147557
0.000148664
0.000170528
0.000166742
0.0001659
0.000127267
0.000118266
0.00011231
9.4279e-05
9.71659e-05
0.000118916
0.000143441
0.000105992
0.000103789
9.59911e-05
0.000105353
0.000134228
0.000128762
0.000104678
8.85414e-05
0.000143854
0.000186517
0.000144744
0.000114454
0.00013748
0.00016259
0.000143673
0.000145565
0.000135997
0.000136616
0.000128577
0.000154593
0.000170485
0.00016204
0.000169663
0.000163696
0.000188651
0.000153183
0.000143307
0.000122524
0.000118867
0.000110181
0.000128476
0.00014981
0.000146896
0.000145413
0.00013888
0.000104669
0.000132318
0.000171267
0.000147829
0.00013287
0.000156834
0.000172327
0.000110001
0.000119375
0.00018473
0.000190253
0.000155965
0.000152246
0.000150097
0.000130841
0.00010115
0.00015719
0.000130502
0.000170147
0.000166428
0.000173046
0.000181939
0.000166943
0.000151159
0.000129034
0.00012189
0.00011706
0.000125512
0.000133112
0.00014286
0.000142646
0.000121421
0.000146147
0.000164408
0.000170063
0.000153197
0.000114628
0.000118816
0.000140827
7.87276e-05
8.71132e-05
0.00015814
0.000187441
0.000186049
0.000176667
0.000162708
0.000140086
0.000107227
0.00010369
0.000113483
0.000157168
0.000170609
0.000163975
0.000142915
0.000149561
0.000153858
0.000136596
0.000132641
0.00012799
0.000132347
0.000137869
0.000153265
0.000163549
0.0001465
0.000143045
0.000126635
0.000140821
0.000139369
0.000116602
0.00010775
9.04992e-05
8.3277e-05
7.88594e-05
7.88932e-05
0.000100174
0.000198759
0.000206825
0.000176695
0.000130959
0.000103919
9.81614e-05
0.000101624
0.000122853
0.000167128
0.000138224
0.000107978
0.00012967
0.000146085
0.000142903
0.000138996
0.000138758
0.00013362
0.000146899
0.000152806
0.000147041
0.000153571
0.000136816
0.000143478
0.000129038
0.000138082
0.000136248
0.000121237
0.000102938
8.77758e-05
7.85077e-05
7.50716e-05
8.08578e-05
0.000140222
0.000204515
0.000195544
0.000151628
0.000125676
0.000125887
0.000125326
0.000128101
0.000120391
0.000116887
9.69092e-05
0.000125166
0.000135
0.000136439
0.000141502
0.000133158
0.000130848
0.000145286
0.000139293
0.000131504
0.000115606
0.000120856
0.000125521
0.000124258
0.000124687
0.000126629
0.000117906
9.35943e-05
8.4048e-05
7.35648e-05
7.10247e-05
7.33046e-05
8.96733e-05
0.000117305
0.000171426
0.000157893
0.000133415
0.000113397
0.000100129
8.07021e-05
8.89408e-05
8.54138e-05
8.76385e-05
9.81067e-05
0.000110054
0.000125215
0.000124689
0.000129443
0.000131227
0.000143949
0.000136111
0.000127127
0.000120471
0.000113506
0.000113396
0.0001134
0.000117198
0.000118087
0.000102732
9.32156e-05
8.82803e-05
7.1906e-05
7.00693e-05
7.39392e-05
8.31188e-05
9.2902e-05
0.000130835
0.000151362
0.000134782
0.000115151
0.000103892
7.61442e-05
7.53287e-05
7.75733e-05
7.67833e-05
7.91521e-05
9.15607e-05
0.00010373
0.000118477
0.000126496
0.000133114
0.000119995
9.55333e-05
9.03788e-05
9.06366e-05
0.000103022
0.000107675
0.000107512
0.000110498
0.000110955
0.000106055
9.15962e-05
8.17979e-05
7.18294e-05
6.91527e-05
8.16297e-05
7.78468e-05
7.58612e-05
8.00461e-05
0.000115837
0.000126691
0.000100239
8.98424e-05
7.34141e-05
7.02972e-05
6.89677e-05
6.80501e-05
7.73267e-05
7.99904e-05
7.79383e-05
9.49009e-05
0.000115617
0.000120841
0.000109381
9.27883e-05
8.13584e-05
9.20345e-05
9.95582e-05
9.60403e-05
9.8843e-05
0.000101783
0.00010066
8.47718e-05
8.22488e-05
7.49456e-05
7.34456e-05
6.84299e-05
6.44057e-05
6.43846e-05
6.40342e-05
6.67413e-05
9.69158e-05
9.4322e-05
9.0606e-05
7.79696e-05
7.39059e-05
7.12334e-05
6.72686e-05
6.16312e-05
6.72849e-05
6.82342e-05
6.64022e-05
7.47037e-05
9.09519e-05
8.98371e-05
8.69656e-05
8.08406e-05
7.39348e-05
7.74755e-05
8.92528e-05
9.33729e-05
9.32577e-05
9.40355e-05
8.66594e-05
7.83796e-05
7.31462e-05
6.98913e-05
6.93263e-05
6.45594e-05
5.93014e-05
5.79368e-05
6.32824e-05
6.25779e-05
8.75799e-05
9.36304e-05
8.58196e-05
8.03516e-05
7.66494e-05
7.23767e-05
7.10078e-05
6.99197e-05
6.46934e-05
6.46188e-05
6.84313e-05
6.5602e-05
7.27636e-05
7.0896e-05
7.31072e-05
7.32357e-05
7.04201e-05
7.05068e-05
7.99443e-05
9.52284e-05
9.47015e-05
9.14488e-05
8.63081e-05
7.28551e-05
7.058e-05
7.33283e-05
7.08765e-05
6.18604e-05
5.68252e-05
5.37605e-05
5.44923e-05
5.8402e-05
6.62105e-05
8.05879e-05
8.00576e-05
7.64912e-05
6.45244e-05
5.57407e-05
6.05173e-05
6.44666e-05
5.90547e-05
5.51137e-05
5.4062e-05
6.19423e-05
6.52913e-05
6.32411e-05
6.07063e-05
6.01158e-05
5.63382e-05
5.65785e-05
6.20768e-05
8.26763e-05
8.79636e-05
9.17521e-05
8.32329e-05
7.56349e-05
7.35682e-05
7.93996e-05
7.62133e-05
6.30136e-05
5.49873e-05
5.30746e-05
5.67169e-05
6.13744e-05
6.77354e-05
7.70617e-05
7.42205e-05
6.99383e-05
5.31384e-05
5.29257e-05
5.52573e-05
6.18705e-05
5.31709e-05
4.89065e-05
4.84127e-05
5.41606e-05
6.23419e-05
5.91624e-05
6.0974e-05
5.84674e-05
5.54864e-05
5.54097e-05
6.07297e-05
6.8188e-05
7.66839e-05
8.43113e-05
8.08397e-05
8.12171e-05
7.90439e-05
6.55742e-05
6.12857e-05
5.83145e-05
5.52616e-05
5.4342e-05
5.54176e-05
6.29318e-05
6.84867e-05
7.08541e-05
6.89926e-05
5.92672e-05
5.31861e-05
5.70925e-05
5.66104e-05
5.65249e-05
5.30373e-05
5.04198e-05
4.89391e-05
4.86988e-05
5.04163e-05
5.49545e-05
5.88102e-05
6.13781e-05
6.00646e-05
5.98438e-05
6.2736e-05
6.11889e-05
5.98149e-05
6.09206e-05
6.95668e-05
6.94054e-05
6.95043e-05
5.83053e-05
5.83198e-05
6.02444e-05
6.18001e-05
6.20245e-05
6.24398e-05
6.97617e-05
7.39188e-05
7.34013e-05
6.613e-05
5.8767e-05
5.8886e-05
6.86087e-05
7.21333e-05
7.91505e-05
6.87688e-05
6.19571e-05
5.97437e-05
5.96684e-05
6.37217e-05
6.43267e-05
6.57274e-05
6.02451e-05
5.60395e-05
5.73944e-05
7.40094e-05
6.6349e-05
6.17276e-05
6.55727e-05
5.97943e-05
6.10561e-05
6.0322e-05
1.74137e-09
1.9302e-09
2.57929e-09
3.50888e-09
3.74899e-09
3.11201e-09
3.05197e-09
4.12718e-09
5.77687e-09
3.28949e-09
1.83333e-09
1.46178e-09
1.06361e-09
1.4885e-09
1.59035e-09
1.91149e-09
1.62275e-09
1.67326e-09
1.82319e-09
2.91172e-09
3.50468e-09
2.27099e-09
2.63599e-09
2.86558e-09
5.69288e-09
8.49376e-09
2.42519e-09
3.22038e-09
3.66199e-09
3.70347e-09
4.11027e-09
2.15792e-09
5.47675e-08
5.48724e-08
5.09208e-08
5.10735e-08
5.95547e-08
5.85545e-08
7.09338e-08
8.87887e-08
7.22745e-08
5.69984e-08
4.13545e-08
4.23425e-08
3.39155e-08
3.55697e-08
4.64994e-08
4.94076e-08
5.25425e-08
8.10237e-08
5.62898e-08
5.87588e-08
6.67411e-08
7.3935e-08
7.58532e-08
1.01365e-07
1.71752e-07
1.59892e-07
7.52122e-08
7.27322e-08
1.09242e-07
1.132e-07
1.17207e-07
1.02687e-07
2.59675e-07
2.13162e-07
1.72434e-07
1.58042e-07
1.71015e-07
1.69594e-07
2.04262e-07
2.40034e-07
2.48914e-07
2.65971e-07
1.5341e-07
1.21236e-07
1.22711e-07
1.23804e-07
1.24859e-07
1.61397e-07
1.84996e-07
1.49577e-07
1.63287e-07
1.80448e-07
2.85417e-07
2.1571e-07
2.98709e-07
3.19568e-07
6.19214e-07
2.9814e-07
1.89123e-07
2.69878e-07
2.99591e-07
3.19684e-07
2.58191e-07
2.94486e-07
8.05744e-07
7.77056e-07
9.03824e-07
7.52638e-07
1.39791e-06
1.18314e-06
1.14813e-06
1.53566e-06
1.091e-06
7.05765e-07
5.95556e-07
5.73774e-07
4.62992e-07
4.85275e-07
5.24903e-07
7.5704e-07
7.2104e-07
1.1606e-06
1.30197e-06
1.16562e-06
1.36647e-06
1.49243e-06
1.02513e-06
1.41393e-06
2.38838e-06
2.11381e-06
9.15845e-07
9.87302e-07
1.53243e-06
1.44621e-06
1.65253e-06
9.78858e-07
3.06197e-06
2.77292e-06
2.43885e-06
2.26542e-06
2.69485e-06
2.58488e-06
3.02307e-06
4.65916e-06
7.49974e-06
4.43353e-06
2.10879e-06
1.89809e-06
1.53619e-06
1.60516e-06
1.6674e-06
2.37925e-06
2.83954e-06
2.43897e-06
2.56915e-06
2.91938e-06
4.55784e-06
5.11513e-06
4.93486e-06
4.71549e-06
7.38297e-06
9.00284e-06
3.73979e-06
3.80534e-06
4.75022e-06
5.5442e-06
5.31488e-06
4.28773e-06
5.21033e-06
4.58522e-06
4.25049e-06
6.35893e-06
4.45567e-06
4.25632e-06
4.90899e-06
9.87677e-06
1.18507e-05
8.26443e-06
6.07374e-06
3.45963e-06
2.54104e-06
2.58246e-06
2.72979e-06
4.14389e-06
3.36523e-06
3.87776e-06
4.29707e-06
4.9646e-06
7.72854e-06
8.31312e-06
7.92984e-06
7.82656e-06
1.17057e-05
1.55638e-05
5.62439e-06
4.98834e-06
8.82311e-06
9.11112e-06
1.01609e-05
6.59387e-06
1.53129e-05
1.65873e-05
9.54705e-06
1.34459e-05
1.02766e-05
9.89086e-06
1.12372e-05
1.52808e-05
3.03658e-05
1.3559e-05
2.04208e-05
1.16663e-05
6.38083e-06
6.26603e-06
7.37099e-06
8.47625e-06
1.08704e-05
1.75785e-05
1.80169e-05
1.28215e-05
1.96993e-05
1.76188e-05
1.91046e-05
1.38513e-05
2.47853e-05
3.31667e-05
2.02523e-05
1.45761e-05
1.84444e-05
2.16918e-05
2.3576e-05
2.10914e-05
2.48002e-05
2.30816e-05
1.6168e-05
1.81401e-05
2.25712e-05
1.75584e-05
1.68458e-05
2.0291e-05
4.33992e-05
4.2945e-05
3.16552e-05
1.6414e-05
1.08137e-05
9.79821e-06
1.03073e-05
1.18218e-05
1.5496e-05
2.31234e-05
1.57507e-05
2.44109e-05
2.97238e-05
2.63556e-05
2.81076e-05
2.00531e-05
3.26878e-05
4.97412e-05
2.3963e-05
2.18999e-05
2.60866e-05
3.59246e-05
5.66104e-05
3.651e-05
5.47768e-05
4.65433e-05
3.05875e-05
2.59125e-05
2.82501e-05
3.57952e-05
2.95257e-05
3.44968e-05
6.84745e-05
7.8781e-05
4.81263e-05
3.33065e-05
2.78188e-05
1.89506e-05
1.86903e-05
2.10622e-05
3.19552e-05
2.87683e-05
3.07963e-05
4.40755e-05
4.30862e-05
4.81377e-05
3.53421e-05
5.93875e-05
4.59335e-05
9.6033e-05
5.73395e-05
4.04139e-05
3.83381e-05
6.3861e-05
9.26277e-05
0.000113466
8.43114e-05
6.55524e-05
4.29117e-05
3.83993e-05
3.6507e-05
3.6519e-05
4.02149e-05
4.36141e-05
7.70686e-05
0.00010447
6.94269e-05
5.15785e-05
3.59189e-05
2.47935e-05
2.54037e-05
2.98593e-05
2.85322e-05
3.83461e-05
4.21918e-05
6.42141e-05
8.20856e-05
6.98332e-05
6.85993e-05
7.95274e-05
8.24846e-05
0.000101447
0.000101077
5.95907e-05
5.60537e-05
7.05045e-05
7.90858e-05
8.0783e-05
0.000130773
0.000110698
9.90359e-05
7.0486e-05
6.49251e-05
6.84786e-05
5.68009e-05
6.54763e-05
7.87766e-05
9.19142e-05
0.000181693
0.000157471
7.29989e-05
4.65716e-05
4.46178e-05
4.4856e-05
4.49382e-05
7.55598e-05
9.11796e-05
8.55327e-05
0.000127139
0.000107775
0.000108671
8.70377e-05
0.000103952
0.000176033
0.000145898
9.56394e-05
7.81141e-05
9.91542e-05
0.0001819
0.000206488
0.000195423
0.000165978
0.00015968
0.000117428
0.000100768
9.53152e-05
8.19293e-05
9.39468e-05
9.92478e-05
0.000114958
0.000200742
0.000228666
0.000147247
6.79278e-05
5.9785e-05
7.3598e-05
8.19909e-05
9.54865e-05
9.95858e-05
9.81871e-05
0.000156828
0.00015644
0.000152895
0.000173531
0.000228653
0.00022631
0.000229383
0.000190926
0.000128939
0.000115196
0.000138388
0.000245838
0.000219889
0.000177231
0.000144318
0.000122368
9.93685e-05
9.62178e-05
9.44771e-05
0.000102128
0.000112078
0.000116341
0.000150866
0.00018714
0.000158463
8.38318e-05
7.51142e-05
9.51843e-05
9.3336e-05
0.000105312
0.000117322
0.000105599
0.00014953
0.000156937
0.000165305
0.000189281
0.000199381
0.000198069
0.000223602
0.000204914
0.000160999
0.000124701
0.000156918
0.000228801
0.000232277
0.000208051
0.000216777
0.000199937
0.00015605
0.000136148
0.000112714
0.000121384
0.000144019
0.000135925
0.000161395
0.000198959
0.000233465
0.000193033
0.000146346
0.000165457
0.000105439
0.000122982
0.000157774
0.000143856
0.000138175
0.000183675
0.000167543
0.000184192
0.000264476
0.000310229
0.000230606
0.000251832
0.000199147
0.000144888
0.000162081
0.000228377
0.000222396
0.000205959
0.000146419
0.000220738
0.000175526
0.000135571
0.000122279
0.000124896
0.000153788
0.00015173
0.00014455
0.000178859
0.000237197
0.000163193
0.000133606
0.000153446
0.000162918
0.000132344
0.000150913
0.000138796
0.000138299
0.000175556
0.00018925
0.000194621
0.000213613
0.000308823
0.000266415
0.000268421
0.000220006
0.000150321
0.000161535
0.000212444
0.000196916
0.000185117
0.00018972
0.000221332
0.000196018
0.00015256
0.000136902
0.000149079
0.000172812
0.00016379
0.000151466
0.000173313
0.00019732
0.000171954
0.000166291
0.000201616
0.000163981
0.000142721
0.000155027
0.000152103
0.000136749
0.000143166
0.000185551
0.000185408
0.000199487
0.000217343
0.000245142
0.000245814
0.000215338
0.000169651
0.00016414
0.000213586
0.000166929
0.000153348
0.000174739
0.000215487
0.000189214
0.000155221
0.000147305
0.000151788
0.000170938
0.000175256
0.000158638
0.000151029
0.000157853
0.000184758
0.000176296
0.000210891
0.000255367
0.000191466
0.000155809
0.00015894
0.00014392
0.000142308
0.000165792
0.000175347
0.00018076
0.000178755
0.000197176
0.000200182
0.000219301
0.000185115
0.000162973
0.000174463
0.000144449
0.000138907
0.000164008
0.000228101
0.000209842
0.000185059
0.000151552
0.000147374
0.000169451
0.000175764
0.000168212
0.000154425
0.000151807
0.000159966
0.000174325
0.000181452
0.000234801
0.000200236
0.00014534
0.000153149
0.000143613
0.000146354
0.000166977
0.000168055
0.000173025
0.000174027
0.000210852
0.000219102
0.000210868
0.000191604
0.000151987
0.00015179
0.000130112
0.000117277
0.000127003
0.000151382
0.000232999
0.000206605
0.000165617
0.000152949
0.000159651
0.000169177
0.000170673
0.000158569
0.000148574
0.000140837
0.000147939
0.000141052
0.000157863
0.000184141
0.000142108
0.000142267
0.00014553
0.000152742
0.000166848
0.000160561
0.000161354
0.000164386
0.000174108
0.000177401
0.000199562
0.000175146
0.000172832
0.000156331
9.71407e-05
8.63128e-05
8.81352e-05
0.000114076
0.000213093
0.000235696
0.000181552
0.000151255
0.000157593
0.000160006
0.000158915
0.000160449
0.000147549
0.000109311
0.0001064
0.000102452
0.000119745
0.000152783
0.000149053
0.000142892
0.0001416
0.000165304
0.000174221
0.000164067
0.000157121
0.000150381
0.000149438
0.000177555
0.000155488
0.000177537
0.000170933
0.000156401
0.000124477
9.32753e-05
9.02533e-05
8.53137e-05
0.00014522
0.000204296
0.000185972
0.000155168
0.000153873
0.000151263
0.000150249
0.000145061
0.000132449
9.77377e-05
8.85292e-05
9.27791e-05
0.000109955
0.000152441
0.000145222
0.000130741
0.000137513
0.000152126
0.000177013
0.000166361
0.000155195
0.000145999
0.000145717
0.000156693
0.000168339
0.000148365
0.000165322
0.000157194
0.00012371
9.85488e-05
6.97423e-05
8.2517e-05
8.12106e-05
0.000103796
0.000161646
0.000168654
0.000147457
0.00014586
0.000142058
0.000126156
0.000106079
8.09242e-05
7.40921e-05
7.55089e-05
8.873e-05
0.000122674
0.000129139
0.000133736
0.000131687
0.000152115
0.000155199
0.000150973
0.000136814
0.000135129
0.000124581
0.000122236
0.000130324
0.00014768
0.000159364
0.000155927
0.000135244
9.57248e-05
7.34623e-05
7.63451e-05
7.19407e-05
7.60827e-05
0.000144979
0.000156249
0.000145828
0.000145214
0.00013099
9.76259e-05
8.70601e-05
7.26235e-05
6.93079e-05
6.60319e-05
7.72834e-05
8.14943e-05
0.000126294
0.000131009
0.000134354
0.000134187
0.000126921
0.000136458
0.000143155
0.000128912
0.000118893
0.00010976
0.00011151
0.00011992
0.000133777
0.000153341
9.92659e-05
7.63232e-05
6.91875e-05
6.28014e-05
6.1141e-05
6.08935e-05
7.25254e-05
0.000103357
0.000139223
0.000139138
0.000113224
8.15306e-05
7.32555e-05
6.84176e-05
6.54792e-05
6.36308e-05
6.40162e-05
7.03142e-05
0.000105698
0.000118413
0.000127862
0.000120628
0.000110791
0.000111895
0.000115972
0.000117768
0.000116244
0.000104432
9.62362e-05
9.55771e-05
0.000103661
0.000103296
7.61295e-05
7.20785e-05
6.8264e-05
5.99055e-05
5.64949e-05
5.69186e-05
5.90768e-05
7.92871e-05
0.000100865
9.72255e-05
9.19512e-05
7.7139e-05
6.81932e-05
7.03957e-05
7.11421e-05
6.61282e-05
6.19962e-05
6.1408e-05
7.27098e-05
7.88426e-05
7.60314e-05
8.83196e-05
8.67421e-05
8.62618e-05
9.06697e-05
9.6637e-05
0.000104731
0.000101399
9.18181e-05
8.65254e-05
8.12327e-05
7.87258e-05
7.54926e-05
7.09001e-05
6.79412e-05
5.76959e-05
5.62748e-05
5.54251e-05
5.85367e-05
7.71233e-05
8.79621e-05
8.4776e-05
8.18561e-05
7.69845e-05
7.233e-05
7.16147e-05
7.56486e-05
7.21064e-05
6.19043e-05
5.94893e-05
6.6127e-05
6.49204e-05
6.65631e-05
7.04291e-05
7.91605e-05
7.43378e-05
8.08332e-05
8.0558e-05
9.82525e-05
9.62646e-05
9.11161e-05
8.58203e-05
7.87458e-05
8.07287e-05
7.55396e-05
7.41752e-05
6.98095e-05
5.85085e-05
5.46085e-05
5.52361e-05
5.70926e-05
7.23968e-05
8.08435e-05
7.91657e-05
7.80985e-05
7.92104e-05
8.09255e-05
8.41318e-05
8.87687e-05
8.60762e-05
6.73357e-05
6.00959e-05
5.57485e-05
6.02616e-05
5.47176e-05
5.41119e-05
5.77629e-05
5.83534e-05
6.07354e-05
6.27505e-05
8.16271e-05
9.40278e-05
9.36426e-05
7.96099e-05
7.62592e-05
7.69799e-05
7.92702e-05
7.59343e-05
6.90563e-05
5.68143e-05
5.60705e-05
5.81761e-05
6.07728e-05
7.83641e-05
7.99802e-05
7.51333e-05
6.71972e-05
6.12283e-05
6.0563e-05
6.80193e-05
7.74532e-05
8.37509e-05
6.78493e-05
5.65197e-05
5.32678e-05
5.44015e-05
5.43607e-05
5.36981e-05
5.54297e-05
5.61367e-05
5.75088e-05
6.12961e-05
7.07665e-05
8.26471e-05
9.05318e-05
8.41814e-05
7.88868e-05
7.93977e-05
6.38413e-05
6.27028e-05
5.97063e-05
5.62258e-05
5.54574e-05
5.90098e-05
6.45109e-05
7.83307e-05
8.04966e-05
7.64554e-05
6.81181e-05
6.00753e-05
6.09875e-05
6.15911e-05
6.08125e-05
5.87743e-05
5.64542e-05
5.37896e-05
4.96344e-05
5.04245e-05
5.58835e-05
5.84651e-05
5.87497e-05
5.84963e-05
5.98361e-05
6.88002e-05
6.33062e-05
6.41579e-05
6.6248e-05
6.97124e-05
6.97728e-05
6.80343e-05
5.4925e-05
5.29772e-05
5.37647e-05
5.88729e-05
5.66133e-05
6.53477e-05
7.39468e-05
7.72899e-05
7.64942e-05
7.18563e-05
6.56206e-05
6.24596e-05
7.54709e-05
8.12113e-05
8.0066e-05
7.03266e-05
6.33502e-05
5.87401e-05
5.79958e-05
6.25434e-05
6.9946e-05
7.23303e-05
6.76636e-05
6.75074e-05
8.06819e-05
9.81068e-05
9.98731e-05
8.83564e-05
7.71553e-05
6.59765e-05
6.10477e-05
5.82379e-05
1.97083e-09
2.23346e-09
3.8976e-09
4.97102e-09
5.43886e-09
4.19791e-09
3.87418e-09
5.93985e-09
5.3592e-09
5.05387e-09
3.94764e-09
3.01661e-09
3.29309e-09
3.24259e-09
3.96044e-09
5.46368e-09
6.45472e-09
8.66107e-09
6.02787e-09
4.40829e-09
6.23973e-09
8.91509e-09
8.16641e-09
1.30802e-08
3.00068e-09
1.80802e-09
2.84756e-09
3.44464e-09
2.86016e-09
1.89453e-09
2.45246e-09
2.42719e-09
5.20213e-08
5.70427e-08
1.00556e-07
1.44984e-07
1.26282e-07
1.29102e-07
1.19653e-07
1.64804e-07
2.03727e-07
1.48281e-07
6.78111e-08
8.38848e-08
5.22266e-08
5.61304e-08
7.7883e-08
1.06e-07
1.25741e-07
2.35019e-07
3.2364e-07
2.22079e-07
2.00986e-07
2.46617e-07
3.60272e-07
3.39131e-07
8.5278e-08
6.33481e-08
5.81047e-08
9.18936e-08
6.52506e-08
6.26108e-08
5.88232e-08
5.86663e-08
1.42931e-07
1.56634e-07
2.83864e-07
3.87481e-07
4.14889e-07
3.67651e-07
3.45163e-07
4.64974e-07
5.75123e-07
3.76142e-07
2.02147e-07
1.43997e-07
1.51442e-07
1.71447e-07
1.93402e-07
3.27453e-07
3.59841e-07
5.51882e-07
5.7026e-07
3.88849e-07
5.76212e-07
5.94887e-07
6.88869e-07
5.51665e-07
2.50923e-07
1.57441e-07
2.06087e-07
2.51936e-07
2.33928e-07
1.62943e-07
1.9541e-07
1.97845e-07
6.95191e-07
8.76459e-07
1.27516e-06
1.85264e-06
1.95299e-06
1.71062e-06
1.72151e-06
1.99031e-06
2.49382e-06
1.97559e-06
1.2545e-06
1.14264e-06
7.28817e-07
7.63354e-07
8.9226e-07
2.03299e-06
2.22711e-06
3.15744e-06
4.46582e-06
2.05327e-06
2.58912e-06
3.04041e-06
3.12564e-06
2.94298e-06
1.26715e-06
7.724e-07
9.29111e-07
1.20789e-06
1.13358e-06
9.19133e-07
9.29669e-07
9.17798e-07
2.17306e-06
2.26253e-06
3.7656e-06
5.662e-06
6.09184e-06
6.01099e-06
5.12184e-06
6.08178e-06
9.07827e-06
8.29303e-06
4.20926e-06
2.4032e-06
2.39e-06
2.43987e-06
3.05634e-06
4.05428e-06
6.36758e-06
7.57749e-06
1.03484e-05
7.38966e-06
6.35573e-06
9.19394e-06
9.2699e-06
1.05983e-05
4.53787e-06
2.50191e-06
2.52961e-06
3.74454e-06
3.81468e-06
3.26765e-06
3.55309e-06
3.29046e-06
3.62777e-06
4.19846e-06
5.84577e-06
8.43495e-06
1.02338e-05
1.02248e-05
7.69812e-06
1.09128e-05
1.45138e-05
1.15704e-05
5.40788e-06
4.14599e-06
3.8943e-06
3.9938e-06
6.18456e-06
7.96428e-06
9.47971e-06
1.46407e-05
1.75354e-05
1.08569e-05
1.02153e-05
1.28641e-05
1.44414e-05
1.78076e-05
7.95923e-06
6.10409e-06
3.90403e-06
4.46291e-06
4.87473e-06
5.7398e-06
9.40084e-06
5.89955e-06
1.04131e-05
9.24393e-06
1.06734e-05
1.69599e-05
2.48288e-05
1.81027e-05
1.61294e-05
1.70196e-05
3.35337e-05
3.25365e-05
2.35511e-05
1.14386e-05
1.31564e-05
9.28732e-06
1.01971e-05
1.19264e-05
1.49185e-05
1.82754e-05
4.0462e-05
4.37416e-05
3.00801e-05
2.54472e-05
2.99891e-05
3.92507e-05
2.13944e-05
1.65503e-05
1.09493e-05
1.43752e-05
1.61998e-05
1.49347e-05
3.35916e-05
3.18238e-05
1.49188e-05
1.33462e-05
1.61441e-05
1.8775e-05
3.56415e-05
3.39071e-05
2.84049e-05
3.10523e-05
4.44116e-05
5.12267e-05
2.93461e-05
1.86547e-05
1.31716e-05
1.63056e-05
1.60799e-05
1.68991e-05
1.84234e-05
2.45631e-05
3.60504e-05
5.49707e-05
3.47376e-05
3.10331e-05
4.04163e-05
7.00725e-05
2.62617e-05
1.71213e-05
1.43001e-05
1.7816e-05
2.39856e-05
2.39854e-05
3.81627e-05
5.52805e-05
3.61464e-05
2.82755e-05
2.89425e-05
4.80865e-05
4.19786e-05
4.49537e-05
5.42548e-05
5.84595e-05
6.35356e-05
8.36414e-05
6.8575e-05
4.12074e-05
2.47568e-05
2.43926e-05
2.45617e-05
2.51347e-05
3.02812e-05
4.35283e-05
6.30432e-05
7.63018e-05
6.16395e-05
5.14229e-05
6.48708e-05
8.50474e-05
7.09248e-05
4.88645e-05
3.34707e-05
3.19054e-05
4.40399e-05
3.38622e-05
5.41351e-05
7.43143e-05
4.34729e-05
3.20939e-05
3.58524e-05
5.90244e-05
6.88145e-05
5.62839e-05
4.86784e-05
4.71226e-05
7.1587e-05
0.000107739
0.000101171
5.59863e-05
3.98517e-05
3.6065e-05
3.31825e-05
3.29631e-05
3.44177e-05
3.38303e-05
4.9029e-05
9.06619e-05
7.95671e-05
6.34391e-05
7.73568e-05
7.68622e-05
0.00012075
5.89491e-05
5.81576e-05
3.67811e-05
5.46647e-05
6.93826e-05
0.00011117
0.000144263
0.000114082
5.60653e-05
6.02131e-05
8.63986e-05
9.58553e-05
0.000111712
0.000106469
0.000119098
0.000134888
0.000116933
0.000119407
0.000107762
7.46817e-05
5.9853e-05
5.52181e-05
5.18831e-05
5.09778e-05
5.02979e-05
4.68401e-05
0.000100924
0.000100731
9.11299e-05
0.000111951
0.000143888
0.000177859
0.000114671
0.000101137
7.30064e-05
7.4852e-05
0.000104707
0.000113166
0.000172348
0.000151721
9.8461e-05
0.000141555
0.000166166
0.000135425
0.000106292
9.49666e-05
0.000100386
0.000126159
0.000125938
0.000164435
0.000129151
0.000113799
9.26461e-05
8.28653e-05
8.03199e-05
7.39098e-05
5.78825e-05
6.32212e-05
0.0001201
9.69321e-05
6.87042e-05
7.69499e-05
9.35973e-05
0.000249933
0.000193052
9.28293e-05
0.000114797
9.6334e-05
0.000122448
0.000195938
0.000217659
0.000184333
0.000126656
0.000139308
0.000213913
0.000173813
0.000118583
0.000148382
0.000131451
0.000211707
0.000139124
0.00017892
0.000192642
0.000134423
0.000110174
0.000112176
0.00010067
9.4302e-05
8.08245e-05
8.2895e-05
0.000116426
0.000125349
0.000111721
0.000106828
0.000163741
0.000232122
0.000176814
0.000171519
0.000122249
0.000110586
0.000133807
0.000178852
0.000228786
0.000222378
0.000190685
0.000197611
0.000253616
0.000193942
0.000152336
0.000155391
0.000174938
0.000223846
0.000177366
0.000129565
0.000133647
0.000154206
0.000171075
0.00013601
0.000134964
0.000123754
9.9453e-05
8.03476e-05
7.93988e-05
0.000111592
0.000104148
0.000107801
0.000140038
0.000271567
0.000309495
0.000205274
0.000132695
0.000143771
0.000149967
0.000180139
0.00021224
0.000223288
0.00020621
0.000240842
0.000271363
0.00022053
0.000169348
0.000154074
0.000171467
0.000213058
0.000204433
0.000132387
0.000134367
0.000149405
0.000139331
0.000179362
0.000181147
0.000164083
0.000117287
0.000104549
0.000109359
8.32873e-05
0.000106585
9.78673e-05
0.000116188
0.000170513
0.000259193
0.00022569
0.000186293
0.000161881
0.000159508
0.000191153
0.000212491
0.000202082
0.000218266
0.00023707
0.000233741
0.00023706
0.00016968
0.000153867
0.000157857
0.000168922
0.000173081
0.000120918
0.000112322
0.000172907
0.000188183
0.000185486
0.000198349
0.000151602
0.00015931
0.000122531
0.000113242
0.000104566
0.000103276
0.000131502
0.000135997
0.000158332
0.000226488
0.000200832
0.000172099
0.000157572
0.000176974
0.00018899
0.0001842
0.000160264
0.000171191
0.00017093
0.000195873
0.000220346
0.000209585
0.000155713
0.000153684
0.000160794
0.000159938
0.000144697
0.000127653
0.000131774
0.000151802
0.000166759
0.000130297
0.000140013