/*--------------------------------*- C++ -*----------------------------------*\
| =========                 |                                                 |
| \\      /  F ield         | OpenFOAM: The Open Source CFD Toolbox           |
|  \\    /   O peration     | Version:  v1706                                 |
|   \\  /    A nd           | Web:      www.OpenFOAM.com                      |
|    \\/     M anipulation  |                                                 |
\*---------------------------------------------------------------------------*/
FoamFile
{
    version     2.0;
    format      ascii;
    class       volScalarField;
    location    "0";
    object      p;
}
// * * * * * * * * * * * * * * * * * * * * * * * * * * * * * * * * * * * * * //

dimensions      [0 2 -2 0 0 0 0];


internalField   nonuniform List<scalar> 
61440
(
-0.0107624
7.40654e-05
0.00211688
0.00171843
0.00104725
0.00104728
-0.00548892
-0.00503141
-0.00268615
0.00420764
0.00155014
-0.00132574
-0.00255887
-0.00536855
-0.00356814
0.00135765
-0.000203718
0.000367499
-0.000719849
-0.0023636
-0.00392069
0.00160211
0.000204222
-0.00274144
0.00433365
0.00379673
-0.00351803
-0.0120396
-0.00802208
0.00121375
-0.00030241
-0.0104611
-0.00795344
-0.000416668
0.00222059
0.00199471
0.00123347
-0.000924169
-0.00556437
-0.00519824
-0.0046215
0.00135714
0.00510588
0.0010285
-0.00262267
-0.0061938
-0.000514596
0.00248501
-8.79494e-05
0.000520092
0.000136399
-0.00388319
-0.00541809
0.00139734
0.000509391
-0.00303093
-0.00140593
0.0054026
-0.00300256
-0.0104377
-0.00813162
0.00141457
-0.000749554
-0.00964318
-0.00698713
0.000272253
0.00227466
0.00204193
-0.000225087
0.000298123
-0.00558528
-0.00250149
0.00100565
0.00478412
0.00115472
0.00105541
-0.00442919
-0.00517163
-0.000862244
0.00134702
-5.18926e-05
0.000235535
-0.000722603
-0.0034853
-0.00390841
0.00149067
-0.00035517
-0.00292362
0.00465895
0.00427723
-0.00293903
-0.0137189
-0.00799576
0.00116213
-0.000944778
-0.00954685
-0.010223
0.000497761
0.0012018
0.00219008
-5.05617e-05
0.000545003
-0.00519945
-0.00309572
-0.00172946
0.000793457
0.00277387
0.00116387
-0.00431282
-0.0050397
-0.00350004
0.00166603
8.77273e-05
0.00021394
-0.000575078
-0.00202931
-0.00301028
0.00180878
-0.000141191
-0.00300279
0.00248658
0.0058534
-0.00272811
-0.0101464
-0.00754716
0.00166794
-7.22887e-05
-0.00921236
-0.00619849
0.000882171
0.00195234
0.00117106
0.0012066
0.000884004
-0.00496965
-0.00366913
-0.00253161
0.00185437
0.00548282
0.00135912
-0.00229543
-0.00586197
-0.00255501
0.00177573
0.000944469
0.000915314
-0.00083288
-0.00349888
-0.00269382
0.00225206
0.000199608
-0.00160529
0.00293644
0.00441292
-0.00310264
-0.0101955
-0.000667806
0.00284306
0.000855038
-0.00365057
-0.00587584
0.000455795
0.00172672
0.00249318
0.001327
0.00203001
-0.00496608
-0.00148734
0.00241509
0.00586523
0.00152867
-0.000258489
-0.00403854
-0.00577488
7.97254e-05
0.0028314
0.000303924
0.000554733
-0.000199968
-0.00302766
-0.00346749
0.00246325
0.00148285
-0.00144214
-0.000634111
0.00686152
-0.00228547
-0.0102546
-0.00688207
0.00876863
0.00186541
-0.00897907
-0.0061113
0.000949862
0.00368112
0.00299175
0.000605138
0.00137478
-0.00455404
-0.00150264
0.000952912
0.00670826
0.00620128
0.000574696
-0.00382177
-0.00537126
0.00042955
0.00217654
0.000518601
2.1146e-05
4.06362e-05
-0.00309205
-0.00252592
0.00118194
0.000931268
-0.00104319
0.00326766
0.00605773
-0.00178414
-0.0098843
-0.00712066
0.00351287
0.00236039
-0.00743557
-0.00515194
0.00200121
0.00374667
0.00325335
0.000725467
0.00144928
-0.00475951
-0.00340045
0.00365665
0.0064905
0.00639114
-0.000372369
-0.00305776
-0.00561314
-0.00198317
0.00330699
0.00055957
0.000785682
0.000113517
-0.00141328
-0.0032037
0.0022974
0.00151857
-0.00191035
0.00338597
0.00680141
-0.00258503
-0.0115766
-0.00550978
0.00982073
0.00449974
-0.00744461
-0.00762988
0.00105421
0.00251653
0.00337938
0.000501693
0.00129607
-0.00451837
-0.00380949
0.000157671
0.00776973
0.00210974
0.00110542
-0.00150373
-0.00559239
-0.00200724
0.0025204
0.000632615
-3.70393e-05
-0.00104737
-0.00266453
-0.000676672
0.00195729
0.00123629
-0.00187886
0.003166
0.00694598
-0.00232451
-0.00949712
-0.00605204
0.00325999
0.000812799
-0.00654174
-0.00436394
0.000220077
0.00330586
0.00227741
0.00103436
-0.00106541
-0.00498191
-0.00192248
0.00350898
0.00754602
0.00262069
0.000244097
-0.00135596
-0.00541552
-0.00215628
0.0036149
0.000663919
-8.4045e-05
-0.00115348
-0.00259431
-0.00196453
0.00185654
0.000796666
-0.00181181
2.62898e-05
0.00658088
-0.000717311
-0.00972022
-0.0063671
0.0070402
-0.00108118
-0.0066313
-0.00485414
0.000143625
0.00311305
0.00220096
0.00286624
0.00135909
-0.00543582
-0.00155985
-0.00199927
0.00781094
0.00306237
0.000947213
-0.000866909
-0.0045163
-0.00244189
0.00198343
0.000734682
-8.71047e-05
5.3593e-05
-0.00281979
-0.00413325
0.000477364
0.000796533
-0.00149807
0.000384103
0.00586757
-0.000875359
-0.00872619
-0.0103324
0.00215068
-0.000665952
-0.006834
-0.00574466
-0.00129125
0.0015564
0.00186077
0.00195239
-0.00226811
-0.00618356
-0.00502653
-0.00223603
0.0073301
0.00309184
0.000471293
-0.000552452
-0.00541765
-0.000853902
0.00160606
0.000680259
-0.000803268
-1.9817e-05
-0.00188299
-0.000208442
0.000873242
-0.000848508
-0.00281541
0.0050692
0.00578919
-0.00147283
-0.00843651
-0.00218333
0.0035325
0.00106703
-0.0072559
-0.00649566
-0.000875246
0.00217735
0.00372513
0.00366392
0.000511064
-0.00559368
-0.00469309
-0.00197653
-0.000770996
0.00475434
-0.000120956
-0.00227181
-0.00572191
-0.00377761
0.00192454
0.000165104
-0.00100313
-0.000217802
-0.0020171
-0.00441276
0.000170488
0.00123858
-0.00174241
7.8322e-05
0.00531626
-0.00121913
-0.0114198
-0.0105956
0.00129287
0.00145951
-0.00363485
-0.00674172
-0.000604239
0.00047765
0.00110191
0.00386068
0.0018935
-0.00615211
-0.00622714
-0.00108098
0.00539653
0.00250862
-0.00011082
-0.00327766
-0.00583153
-0.00360602
0.00252368
0.000133972
-0.00169641
-0.00144061
-0.00396699
-0.00243155
0.000368689
0.000812647
-0.00256977
-0.000542403
0.00429278
-0.00105307
-0.0113074
-0.00789441
2.46964e-05
0.000148679
-0.00906635
-0.00633856
0.000182187
0.00151117
0.000892455
0.0037344
-0.000525779
-0.00622057
-0.00825017
-0.00100838
0.00541279
0.00362254
-0.000206614
-0.00225417
-0.00514141
-0.00412048
0.00154417
-0.000269142
-0.00182492
-0.00104874
-0.00263843
-0.00362974
-8.16856e-05
-0.00141714
-0.00358354
-0.00086379
0.00441769
0.0015617
-0.0129014
-0.0111035
-0.000575176
-0.000805996
-0.00949675
-0.00967902
-0.00132952
0.000197375
0.00229435
0.00124045
0.000784764
-0.00555921
-0.00729778
-0.0012311
0.00291478
0.00277211
-0.0010767
-0.000911742
-0.00632302
-0.00455587
0.00289226
-1.94153e-05
-0.000177474
-0.00167027
-0.00389413
-0.00600441
-0.000286448
-0.00290541
-0.00457053
0.00205615
0.00455021
-0.000605205
-0.0116777
-0.00452575
0.000106884
-0.00169528
-0.00881398
-0.00603741
-0.00192376
-0.000769922
0.000808954
0.00162777
0.000494082
-0.00890609
-0.00950145
0.00120194
0.00306059
-0.000382479
-0.00200842
-0.0016571
-0.00643929
-0.00330546
0.00245183
-0.00105384
-0.00203427
-0.0003903
-0.00316937
-0.00720031
-0.00172216
-0.00242151
-0.00481787
-0.00341215
0.00314776
0.00186327
-0.00767839
-0.00715526
-0.000670632
-0.000852718
-0.0057149
-0.00654099
-0.000785521
0.000916368
0.00313395
0.00175088
0.000223377
-0.0063166
-0.010273
-0.00362917
0.000495784
-0.00363267
-0.0018591
-0.00068469
-0.00424619
-0.0025296
0.00383355
-0.00171358
3.09511e-05
-0.00164028
-0.00273267
-0.00555593
-0.00307086
-0.00379171
-0.00573627
-0.00193457
0.00161765
-0.000655282
-0.00770278
-0.00659469
-0.000759912
-0.000539356
-0.00946266
-0.0079194
-0.0026095
-0.00034033
0.00511887
0.00176918
-0.000681014
-0.00174163
-0.00951574
-0.00867228
-0.00595024
-0.00638833
-0.00445053
-0.00177147
-0.00486442
-0.00217915
0.00395293
-0.00311953
-0.00147118
-0.000782992
-0.00232802
-0.0065183
-0.00573211
-0.00451974
-0.0045248
-0.00452478
0.00124177
0.000670815
-0.00838291
-0.00589165
0.00141978
0.000822894
-0.00854751
-0.0112949
-0.0048085
-0.00377685
0.00041534
-0.00069343
0.000593319
-0.00191117
-0.00832542
-0.00937224
-0.00776615
-0.00966248
-0.0072641
-0.0075078
-0.00603845
-0.00296934
0.00307075
-0.00467389
-0.00369789
0.000301458
-0.00266851
-0.00756246
-0.00534294
-0.00333921
-0.0054764
-0.00623622
0.00148924
-0.000232864
-0.00663776
-0.00579002
0.000604818
5.7834e-05
-0.00662517
-0.0106875
-0.00560652
-0.00435254
-0.00125701
0.00131732
0.00417005
0.00274188
-0.00444347
-0.0108204
-0.00837476
-0.0099506
-0.00875142
-0.00602853
-0.00922518
-0.00317654
4.28022e-05
-0.00435153
-0.00212139
0.000339914
-0.00427379
-0.00991108
-0.00862788
-0.00269261
-0.0047037
-0.000869244
0.00191246
-0.000249563
-0.00601374
-0.00515052
0.00153041
-7.84541e-05
-0.00534753
-0.0101211
-0.00643153
-0.00460677
-0.00267931
-8.08262e-05
0.00104028
0.00364623
-0.000161494
-0.0122291
-0.0115864
-0.0140895
-0.00893453
-0.0090363
-0.00776683
-0.0028888
0.00349078
-0.00505943
-0.00279823
0.0014596
-0.00296767
-0.00763157
-0.00592654
-0.000833852
-0.000207821
-0.00813753
-0.000318448
-0.00081755
-0.00342007
-0.00564932
-2.09353e-05
-5.24262e-05
-0.00613082
-0.00868613
-0.00692086
-0.00500073
-0.00282273
-0.000532401
-5.72447e-05
0.0033552
0.00195536
-0.0117303
-0.0114641
-0.0139414
-0.00924221
-0.00708283
-0.00756763
-0.00325008
0.00256196
-0.00547575
-0.00537793
0.00245847
-0.00197905
-0.00950107
-0.00775462
-0.00193227
-0.00357049
-0.00670132
0.000924842
-0.00130722
-0.00315555
-0.00544473
-0.000434561
-0.00146061
-0.0056503
-0.00862252
-0.00654547
-0.00488215
-0.00250806
0.000699872
-0.00017466
0.000716164
0.0030779
-0.00814909
-0.00778628
-0.0100035
-0.0121627
-0.00629963
-0.0055556
-0.0033198
0.00476075
-0.00267536
-0.00470584
0.00340471
-0.00145849
-0.00831626
-0.00925419
-0.00432468
-0.00523669
-0.00599252
0.00171023
-0.0020313
-0.00371149
-0.00443751
-0.00110158
-0.00165206
-0.00367177
-0.00780609
-0.00692146
-0.00464789
-0.00347233
-0.00100386
0.000829439
-0.000503718
0.00280331
-0.00347634
-0.00545882
-0.00876859
-0.0100619
-0.00584057
-0.00339299
-0.00158316
0.00287235
-0.000323239
-0.00201538
0.00309006
-0.0015726
-0.00574269
-0.00595132
-0.00485444
-0.00248498
-0.00356279
0.0021247
0.00102349
-0.00358757
-0.00285713
-0.000485666
-0.00130176
-0.00433665
-0.00649981
-0.00656103
-0.00387503
-0.00324067
-0.0019513
0.00111539
-0.000840863
0.00421243
-0.00211375
-0.00401157
-0.00566881
-0.00810191
-0.00509759
-0.00265043
-0.00283192
0.00107399
0.000560654
-0.00244363
0.0012507
-0.0026332
-0.00561747
-0.00499525
-0.00386942
-0.000307727
-0.00132862
0.00130262
-0.00028403
-0.00310975
-0.001802
-0.000795168
-0.0026043
-0.00414989
-0.00737249
-0.00624119
-0.00429544
-0.00356699
-0.00152488
-0.000118845
-0.00172825
0.000376334
2.32471e-05
-0.00357902
-0.00551008
-0.00584099
-0.0028599
-0.00036439
-0.000660265
0.00089091
0.000441109
0.000413162
-0.000393969
-0.0031453
-0.00562072
-0.00450184
-0.0033051
-0.00140807
-7.05485e-05
0.00101903
0.000997716
-0.00265701
-0.00217848
-0.000901646
-0.00260646
-0.00520822
-0.00682046
-0.0062389
-0.00420672
-0.00385326
-0.00160659
-0.00115369
-0.0017822
-0.00240949
-0.0022448
-0.0041297
-0.00579419
-0.00388502
-0.00228177
-0.000507124
-0.000855076
0.000971041
0.00102277
0.000455857
0.000256926
-0.00290121
-0.00538852
-0.00445904
-0.00315103
-0.00130366
3.73511e-05
0.00152538
0.000175595
-0.00119013
-0.000953975
-0.00145356
-0.00208079
-0.0053818
-0.00565239
-0.0042814
-0.00395778
-0.00423145
-0.00301871
-0.00173363
-0.00119012
-0.00121823
-0.00115558
-0.00379388
-0.00452295
-0.00195369
-0.000770793
-0.000240846
-4.10851e-05
0.000435487
0.000473565
0.000130134
-0.000956714
-0.0029206
-0.00352848
-0.00309242
-0.00287962
-0.00142213
0.00133659
0.000988797
-0.000912685
-0.001626
-0.0010947
-0.00257523
-0.00334473
-0.00410182
-0.00480112
-0.00445423
-0.00384959
-0.00381801
-0.00342116
-0.00192989
-0.00107436
-0.000785085
-0.00162797
-0.00317338
-0.00274208
-0.00182367
-0.000860665
-0.000696149
-0.000974531
5.3784e-05
0.000438677
-0.00130155
-0.00232431
-0.00461133
-0.00451768
-0.00344235
-0.00240681
-0.00131966
0.00115167
0.000488313
-0.00318033
-0.00286485
-0.00275125
-0.00248628
-0.00441182
-0.00411721
-0.00622467
-0.00485477
-0.00610776
-0.00124412
0.00117033
0.00226636
0.00351078
-0.00214454
-0.00546163
0.00335343
0.00376821
-0.00303522
-0.00571546
-0.00587952
-0.0039411
-0.000253933
-0.000621906
-0.00198549
0.000400861
-0.00238933
-0.0100191
0.000473381
0.000336542
-0.00170351
-0.00411719
0.00254354
-8.06615e-05
-0.0130871
-0.0113644
-0.00223441
0.000375025
-0.00947131
-0.00645207
-0.00646945
-0.000889007
-0.00112878
0.00235931
0.00214829
-0.000179369
-0.00385277
-0.000165552
0.0040365
0.0036607
-0.00513561
-0.00575892
-0.00449012
-0.00419646
0.00181837
-0.00096692
-0.00281957
0.000169729
-0.00267243
-0.00834907
0.00144295
0.00128395
-0.000414109
-0.00404129
-0.00468907
-0.00573227
-0.00956275
-0.0116288
-0.00226749
0.00076015
-0.00606539
-0.00888876
-0.00344209
-0.00600975
0.000148187
0.00194966
0.00218901
-0.000129274
-0.00147282
-0.00290558
0.00376948
0.003995
-0.00511017
-0.00612499
-0.00610183
-0.00332329
-0.000281394
-0.00127529
-0.00190039
0.000211707
-0.0057016
-0.0101694
0.00151088
0.00198007
-0.00133477
-0.00953733
-0.00280765
-0.0017264
-0.0134092
-0.0102814
-0.00126083
-0.00802034
-0.00927486
-0.0062816
-0.0047874
-0.00618861
0.00022709
0.00142877
0.00235573
0.00432584
-0.00147359
8.88456e-05
0.00505627
0.00379477
-0.00503335
-0.00542799
-0.00438641
-0.00337148
-0.000142503
-0.000786101
-0.00253149
0.00351753
-0.00199189
-0.00994072
0.00221603
0.000610282
-8.13988e-05
-0.00514594
0.00430885
-0.00154133
-0.00930437
-0.01139
-0.000297973
0.00115914
-0.00893216
-0.00471792
-0.00614844
-0.000482572
-0.000808887
0.00275378
0.00256453
0.000258016
-0.0010668
-0.00449149
0.00579768
0.00393534
-0.00318863
-0.00534224
-0.00281869
-0.0032313
5.77489e-05
-0.000826571
-0.0016359
0.000744053
-0.00528875
-0.00957888
0.00459862
0.00446139
0.000146813
-0.00461625
-0.00312406
-0.00334924
-0.00832286
-0.00978484
-0.000385737
-0.00729776
-0.00970694
-0.0059361
-0.00444132
-0.00557604
-0.000796126
0.00288103
0.00271936
0.000411063
-0.00494616
-0.00033341
0.00624296
0.00474469
-0.00309371
-0.00552603
-0.00417078
-0.00314522
0.00144903
-8.82301e-05
-0.00143264
0.000885584
-0.00510968
-0.00934271
0.00490841
0.00299456
-0.0014382
-0.00436985
-0.00252484
-0.00499285
-0.00908341
-0.00591289
0.000655985
-0.00688683
-0.00841218
-0.00544709
0.000367167
-0.000959452
-0.000914616
0.00275164
0.0027951
0.000852171
-0.000518836
0.000802361
0.00614775
0.00539744
-0.00281081
-0.00540962
-0.00401831
-0.00180946
0.000357838
-0.000331962
-0.000999934
0.00450384
-0.00464233
-0.00544148
0.00364601
0.00510309
-0.00262815
-0.00241872
6.9094e-05
-0.00212827
-0.00780608
-0.00937012
-0.000398201
0.00234347
-0.00750915
-0.00505035
-0.00541402
-0.00507418
-0.000981478
0.00334158
0.00432133
0.00498771
-0.000422956
0.00126866
0.00702316
0.00331872
-0.00505517
-0.00650269
-0.00441512
-0.00185936
0.000401418
-0.000196822
-0.00139216
0.00133465
-0.00106348
-0.00522694
0.00588487
0.00367343
-0.000286536
-0.00302574
0.00734195
-0.00483588
-0.00917836
-0.00892887
0.00134884
-0.00420987
-0.00681511
-0.00432863
-0.00307686
-0.000353221
0.000895405
0.0035177
0.00353216
0.00429027
0.000208316
0.00145727
0.00754179
0.00563064
-0.00419043
-0.00481243
-0.00255703
-0.00265225
0.000343872
-0.00156843
-0.0015325
0.0015168
-0.000869644
-0.00652995
0.00659062
0.00283408
0.0021015
-0.00313474
-0.000584527
0.000505023
-0.0096342
-0.0114446
0.0017091
0.000349902
-0.00495203
-0.00615207
-0.00263582
-0.00539975
-0.00192443
0.00356092
0.00350763
0.000984721
0.000191354
0.00108985
0.00944085
0.00580384
-0.00377467
-0.00510298
-0.00472507
-0.0026099
0.00189364
0.000601423
-0.00174436
0.00115394
-0.00473123
-0.00752807
0.00542763
0.00269112
0.00218142
-0.00310473
0.00735328
0.00469622
-0.00770252
-0.0083262
0.000410152
0.000753235
-0.00827562
-0.00378494
-0.0027035
-0.0037946
-0.00197363
0.00165715
0.00358532
0.00485925
-0.000137821
0.00227119
0.00592301
0.00691359
-0.00190912
-0.00453723
-0.00563357
-0.00239365
-0.000167667
0.000735852
-0.00394565
0.00488278
-4.24042e-05
-0.00389402
0.00841096
0.00352405
0.000177245
-0.0023255
0.00178018
0.00249732
-0.008793
-0.0112375
0.000421529
-0.00309831
-0.00775994
-0.00426541
-0.00377978
-0.00362503
-0.00110776
0.000821361
0.00370837
0.00175963
-0.00268583
0.00248122
0.00359267
0.00589062
-0.0014653
-0.00356638
-0.00408947
-0.00199564
0.0016953
-0.00235567
-0.00450181
0.00131826
-0.00502741
-0.00438809
0.00906172
0.00236308
0.000562191
-0.00638743
0.000269266
-0.00120289
-0.00550781
-0.0102844
-0.00141394
0.00357674
-0.00499027
-0.0046272
-0.00270402
0.000215506
0.000507856
0.00239876
0.00369792
0.00167736
-0.00555787
-0.000518497
0.00414329
0.00420892
-0.00246845
-0.00393275
-0.00381862
-0.00214297
0.00184763
-0.00228925
-0.00382288
-0.000320798
-0.00119075
-0.00325509
0.0031842
0.00618255
-0.000250356
-0.00227374
0.00384864
0.00214786
-0.00840059
-0.00958328
-0.00177046
-0.00340008
-0.00744017
-0.0038366
-0.0050662
-0.00436484
0.000691973
0.000900497
0.00319319
0.00534064
-0.00229338
-0.000280895
0.00580726
0.00210658
-0.0015953
-0.00389545
-0.00364859
-0.00214437
0.000744002
0.000197018
-0.00342198
0.00118037
-0.00586453
-0.00972444
0.00794433
0.0029357
-0.00212038
-0.0024835
-0.00223531
0.000526044
-0.0058548
-0.0068729
-0.0019469
-0.00490743
-0.00891765
-0.00410601
-0.00552795
-0.000670638
-1.43865e-05
0.000167813
0.00398643
0.00495871
-0.00168317
0.00345357
0.00428208
0.00351893
-0.00254648
-0.00332425
-0.00616998
-0.00292905
0.00247937
0.0014139
-0.00341085
-0.00190643
-0.0020475
-0.00798639
0.00186767
0.00565761
-0.00214545
-0.0017283
-0.00130344
-0.00145009
-0.00776921
-0.00872412
-0.00175713
-0.00546576
-0.0104635
-0.00571687
-0.00545179
-0.00696471
-0.000664064
-0.00174718
0.00305718
0.00423289
-0.00669027
-0.0010845
0.0060684
0.00241932
-0.00634868
-0.00699703
-0.00281928
-0.00286941
0.00273792
0.000673074
-0.0013021
-0.00291199
-0.00691829
-0.0111927
-1.91784e-05
0.00168253
-0.000448986
-0.00332251
0.00187138
-0.00515042
-0.00903004
-0.00720454
-0.00221868
-0.0010864
-0.0111881
-0.00714914
-0.00584417
-0.00804216
0.00345037
0.00344553
0.00216853
0.000741239
-0.00494415
0.00085316
0.00391459
0.00210905
-0.00360824
-0.0102248
-5.35529e-05
-0.0031932
-0.000639446
0.00208635
-0.00207666
-0.00338474
-0.00472224
-0.0118282
-0.0021607
0.0036014
-0.00176597
-0.00472417
-0.00502447
-0.00216822
-0.00958317
-0.00760624
-0.00149584
-0.00852372
-0.0131519
-0.00836962
-0.00614231
-0.00832844
-3.11461e-06
-0.00495884
-0.0023607
0.00387233
-0.000810066
-0.000541167
0.00304218
-0.000845625
-0.00401283
-0.0114715
-0.00481119
-0.00209215
-0.00182965
0.000689137
-0.00126457
-3.7685e-05
-0.00828051
-0.0117197
-0.00320501
0.000469053
-0.00230388
-0.00446317
-0.00479264
-0.00575448
-0.0112954
-0.00390525
-0.000312883
-0.00363427
-0.0136967
-0.0120628
-0.00641725
-0.00652832
-0.00309903
0.00388181
-0.00195522
0.00416855
-0.00826822
-0.00831353
-0.000110783
-0.000115405
-0.00450323
-0.0118074
-0.00607144
-0.000867471
-0.00189441
-0.00135346
-6.0881e-05
0.000588554
-0.00721226
-0.0136201
-0.00571873
0.00286422
-0.00340012
-0.00521117
-0.00399096
-0.00591648
-0.00858011
-0.00793635
-0.000821696
-0.00381772
-0.0131359
-0.0117129
-0.00876486
-0.00373663
0.00107927
0.00755272
0.00456837
0.00563155
-0.00663714
-0.00864106
-0.00346033
-0.00327263
-0.00767033
-0.0103984
-0.00719183
-0.00166705
-0.00181058
-0.00175507
0.00310676
0.00379733
-0.00445121
-0.0151584
-0.00219444
0.00187175
-0.000194616
-0.00527995
-0.0100264
-0.00856968
-0.00978118
-0.00572083
0.00124651
-0.00156902
-0.0137433
-0.0139948
-0.00899446
-0.00573225
-0.000323083
0.00498795
0.0043703
0.00656972
0.00339386
-0.0105692
-0.00598721
-0.00646171
-0.00840665
-0.0111504
-0.00605465
-0.00255686
-0.00141756
-0.00432085
0.00496489
0.0052826
-0.00710808
-0.0147527
-0.00914307
0.000731101
0.000772864
-0.00513945
-0.00475688
-0.00455317
-0.00739185
-0.00865381
0.00132392
-0.00414847
-0.0131775
-0.0145514
-0.0138902
-0.00485224
-0.0048839
-0.000587134
0.00129083
0.00638676
0.0060882
-0.0108258
-0.0106404
-0.00715592
-0.00772699
-0.00906214
-0.00719508
-0.00340685
-0.000708704
-0.00387962
0.00485925
0.00448546
-0.00493512
-0.0111474
-0.00665702
-0.00154876
0.000701966
-0.00555584
-0.00418016
-0.00844901
-0.00562746
-0.00612828
-0.000778783
-0.000135857
-0.00851733
-0.0132149
-0.0140444
-0.00747571
-0.00405668
0.00110351
0.000293323
0.00677725
0.00423081
-0.00764329
-0.00912349
-0.0101364
-0.00966586
-0.00946102
-0.00599213
-0.00387103
-0.00132592
-0.00337348
0.000965238
0.00141879
-0.00509342
-0.013957
-0.0116399
-0.00246093
-0.00207047
-0.00566077
-0.00311478
-0.00744406
-0.005859
-0.00526984
0.000844536
-0.00220893
-0.0100912
-0.0130065
-0.0126155
-0.00790389
-0.00373668
-0.000361988
-0.00197319
0.00171103
0.00378296
0.000911854
-0.00519015
-0.00771222
-0.0103194
-0.00893057
-0.00782223
-0.00713806
-0.0015653
-0.00154776
0.00113029
0.00465459
-0.00427606
-0.00782069
-0.00628545
-0.00325606
-0.00119786
-0.00709627
6.65031e-05
-0.00472333
-0.00653477
-0.00538658
-0.00135951
-0.0020134
-0.00691773
-0.00947618
-0.0125002
-0.00823707
-0.00374443
-0.00239702
-0.00159752
-0.0025852
0.00160206
-0.00199972
-0.00463861
-0.00519833
-0.0101928
-0.00602809
-0.00597215
-0.00829613
0.000258575
-0.00178749
0.000250134
0.00334972
-0.00367092
-0.00566311
-0.00449469
-0.0020896
0.000691554
-0.00293195
0.000993301
-0.00476457
-0.00610493
-0.00444738
-0.00183985
-0.0018468
-0.00638809
-0.0128985
-0.0121107
-0.0082204
-0.00362976
-0.0023735
-0.000747145
-0.00179789
0.00182329
-0.00129881
-0.0038115
-0.00483143
-0.00713749
-0.00476309
-0.00344573
-0.00801268
-0.00220209
-0.000528766
-0.000134548
0.000363169
-0.00518819
-0.00532533
-0.00450121
-0.00343364
0.000269414
-0.000296378
0.000703057
-0.00268327
-0.00514006
-0.00411401
-0.00172545
-0.0025394
-0.00517971
-0.0101866
-0.00962093
-0.00602449
-0.00381519
-0.00175107
-0.00150926
-0.00282182
0.000363415
-0.00175477
-0.00365483
-0.00305854
-0.00303714
-0.00145972
-0.000895554
-0.00375333
-0.00481725
5.73122e-05
3.82099e-06
-0.000908556
-0.00384569
-0.00538255
-0.00311075
-0.00283484
-0.00109765
0.000132498
0.00155788
0.00142259
-0.000519449
-0.00116476
-0.00292148
-0.00545876
-0.00674178
-0.00853755
-0.0075542
-0.00531062
-0.0034436
-0.00241388
-0.0026424
-0.00402013
-0.00110237
-0.00248488
-0.00490613
-0.00386779
-0.00283999
-0.00206581
-0.000448028
-0.000945936
-0.00186082
0.000323731
-0.000400774
-0.00177998
-0.00381932
-0.00493247
-0.00360556
-0.00248464
-0.0013353
0.000226971
0.0017309
0.00166191
0.00113124
-0.000153153
-0.00121742
-0.0041971
-0.0059787
-0.0064253
-0.00526026
-0.00473842
-0.00327539
-0.00243382
-0.00129939
-0.00145539
-0.0010042
-0.00277728
-0.00564545
-0.00478687
-0.00152333
-0.000623198
-0.000728421
-0.000844722
-0.000346719
0.000127183
-9.87273e-05
-0.00273372
-0.00390002
-0.00358084
-0.00192579
-0.00160923
-0.00100909
0.00121694
0.00126297
-0.000811115
-0.000583026
-0.000654587
-0.00298608
-0.00504836
-0.00570774
-0.00497222
-0.00426216
-0.00378409
-0.00346857
-0.00157236
-0.00071564
-0.000759919
-0.000359718
-0.00233847
-0.00373302
-0.00228262
-0.00162839
-0.000885373
-0.00156153
-0.00229772
3.10222e-05
0.000315551
-0.0012843
-0.002451
-0.00518837
-0.00494014
-0.00284013
-0.00106663
-0.000224996
0.00280287
-0.00109838
-0.00440469
-0.00371948
-0.00322081
-0.00270919
-0.00461587
-0.00464097
0.00128423
-0.00554128
-0.00777795
-0.00286022
0.00395768
0.00146997
0.00137664
-0.0019755
-0.0035692
0.00292337
0.00627976
-0.000954871
-0.00520633
-0.00495303
-0.00256335
-0.00193483
0.000307957
0.000855826
0.00514845
-0.00100313
-0.0101127
-0.000465182
0.0055364
0.00167149
0.00815346
0.000649409
-0.00578449
-0.00762631
-0.00691306
-0.000615874
-0.00495067
-0.00367074
0.00125917
-0.00346947
-0.00674324
0.000261991
0.00282323
0.00247982
0.00146059
-0.00172317
-0.00531938
0.00334786
0.00544789
-0.000971548
-0.00691006
-0.00625546
-0.00299456
-0.0022844
-0.00135407
-0.00133649
0.00296555
-0.00245482
-0.00588189
-0.000254828
0.00430679
0.00165808
0.00481669
-0.00323275
-0.0035771
-0.00740977
-0.00499168
0.000996392
-0.00371042
-0.00669829
-0.000238658
-0.00409764
-0.0066746
0.0031002
0.00417326
0.0025704
0.00156268
-0.00159347
-0.00837307
-0.000610205
0.00549646
-0.000733365
-0.00687058
-0.00420559
-0.00240539
6.38078e-05
-0.00129981
-0.00134713
0.00580662
-0.00620728
-0.00572356
-0.00374607
0.00378536
0.00188334
0.00490493
0.00131694
-0.00577926
-0.00813655
-0.00701925
0.000656237
-0.00434232
-0.0048867
0.0014273
-0.0049446
-0.00645882
0.00346523
0.00455759
0.0028833
0.00192346
-0.00311167
-0.00265431
-0.000224594
0.00564803
-0.00401303
-0.00675911
-0.00607748
-0.00224441
0.00103168
0.00114182
-0.00049108
0.00425807
0.000174135
-0.00423234
0.00329577
0.00705286
0.00255352
0.0051938
0.00145312
-0.00562386
-0.00712936
-0.00680334
0.00124129
-0.00812996
-0.00343529
8.72499e-05
-0.00377182
-0.00743738
0.00116437
0.00397723
0.00259224
0.00238112
-0.00256385
-0.0038319
0.00440659
0.00603962
-0.000668971
-0.00666411
-0.00588709
-0.00249505
-0.00167641
0.00164076
-0.000181732
0.00761222
0.000984819
-0.0103383
0.00406482
0.00789258
0.0037298
0.00563963
-0.00220246
-0.00315481
-0.00680195
-0.00643419
0.00159557
-0.00797872
-0.00317503
0.00178771
-0.00466104
-0.0060283
0.0002795
0.0058141
0.00299999
0.00252703
-0.00525697
-0.00340264
0.00261289
0.005528
-0.000687201
-0.00632725
-0.00578807
-0.00235755
-0.00114539
0.00181899
0.000738646
0.0066747
-0.00478952
-0.0100587
-0.00214472
0.00829567
0.00441722
0.0058868
-0.00269758
-0.00560021
-0.00570213
-0.00442532
0.001836
-0.0112793
-0.00296116
0.00209174
-0.00462714
-0.00816017
0.00167133
0.00520542
0.00358714
0.00288025
-0.000100833
-0.000586191
0.00397616
0.00612956
-0.00085925
-0.0046273
-0.00568727
-0.00215129
-0.00156226
-8.77774e-05
0.00253604
0.00711572
0.000162423
-0.00471146
-0.00171901
0.00882811
0.00552623
0.00630354
-0.00239783
-0.0026026
-0.00693174
-0.00558956
0.00158515
-0.00988918
-0.00768182
0.000830421
-0.0032424
-0.00713656
-0.00164941
0.00560356
0.00505802
0.00374952
-0.0015116
-0.000710438
0.00322426
0.00662973
-0.000979791
-0.00653935
-0.00417547
-0.00286154
-0.00142901
0.0013453
0.00274038
0.00580956
-0.00436967
-0.0043172
0.00129265
0.00891558
0.0100051
-1.16248e-05
-0.00146274
-0.00512371
-0.00620395
-0.00530304
0.00172291
-0.0071529
-0.00643373
0.0013571
-0.00294217
-0.00697789
0.00555368
0.00609305
0.00414592
0.00459324
-0.000665267
-8.88109e-05
0.00371991
0.00899953
-0.00320339
-0.00686054
-0.00604057
-0.00170916
-0.00224494
-0.000922645
0.000227181
0.00862956
-0.000281536
-0.0086696
-0.00160285
0.008587
0.00602634
0.00692819
-0.00249868
-0.00478504
-0.00622843
-0.00539274
0.000635913
-0.00184028
-0.00037407
0.00299557
-0.00405244
-0.00635153
0.00564941
0.00720152
0.0042665
0.00318662
0.000222154
-0.000508201
0.00605211
0.00931712
-0.00307396
-0.00415976
-0.00294926
-0.00282555
5.8128e-05
-0.000328882
0.0015961
0.0048681
-0.00341407
-0.00846601
0.00410276
0.0084058
0.00401595
0.0123002
0.00319327
-0.00198784
-0.00490176
-0.00575558
0.00118765
-0.00641856
-0.00171511
0.00156682
-0.00392265
-0.00623854
-0.000770372
0.00801944
0.00574364
0.00543812
0.00023697
-0.00683546
0.00283292
0.00927538
0.00139959
-0.00592088
-0.00432407
-0.00224004
-0.00210532
-0.000581353
-0.00143756
0.00379461
0.00189515
-0.00450518
-0.00311239
0.00644332
0.00566256
0.00714492
-0.00242776
-0.00352823
-0.00565224
-0.00547435
0.000889861
-0.0026934
-0.00372742
0.00424849
-0.00421724
-0.00664208
0.00297581
0.00559712
0.00314198
0.00325902
-0.000345762
-0.00540319
0.00134839
0.00826682
-0.00332561
-0.00524583
-0.00408109
-0.00228112
-0.00193915
-0.0027809
-0.000708056
0.00241217
-0.00365141
-0.00552101
-0.000104814
0.00317118
0.0021109
0.0104556
0.00541414
-0.00482022
-0.00662454
-0.00515426
0.00361263
-0.0124801
-0.00195681
0.00336935
-0.00453734
-0.00582775
0.00367953
0.00579328
0.00305622
0.00467415
-0.00522194
-0.00326395
0.00182801
0.00776959
0.00249318
-0.00500603
-0.00386234
-0.00164279
-0.00074557
-0.00101574
-0.00254977
0.00235893
0.000462461
-0.00916892
-0.00243068
0.00634223
0.00300634
0.0121658
0.0014313
-0.00286042
-0.00782937
-0.00573224
0.00298077
-0.00634071
-0.00286887
-0.000974192
-0.00379584
-0.00702356
0.0082815
0.0100592
0.00432428
0.00257927
-0.00239659
-0.00439978
0.00485361
0.0076194
0.00155029
-0.0042943
-0.00312721
-0.0026836
-0.00242781
-0.00070096
-0.000771114
0.000434431
-0.00702834
-0.010071
-0.00337647
0.00478621
2.68397e-05
0.00195304
0.00227762
-0.00475096
-0.00634642
-0.00629209
0.00260894
-0.00381743
-0.0083423
-0.0013009
-0.00578887
-0.00830718
0.00796934
0.0105749
0.00508815
0.00200728
-0.00265825
-0.00598522
0.00165704
0.00674729
-0.00273391
-0.00422946
-0.00365582
-0.00136077
0.0001617
-6.00262e-05
-0.00353956
0.000134457
-0.00613332
-0.00738916
0.000631924
0.00217591
-0.000254583
0.00568999
0.00478148
-0.00394718
-0.00912058
-0.00658738
0.00273975
-0.0152465
-0.00872109
-0.00431065
-0.00643468
-0.0086952
0.000185222
0.00402408
0.0040152
0.00315099
-0.00284543
-0.0121762
0.00107317
0.00471589
-0.00449337
-0.0055835
-0.0032445
-0.00301133
-0.00213258
6.05876e-05
-0.00418133
-0.002847
-0.00303224
-0.0108365
-0.00414075
0.00182642
-0.0018523
-0.00203528
0.00628184
-0.00266395
-0.00539777
-0.00450857
0.00111579
-0.00855597
-0.0158751
-0.0083846
-0.00888137
-0.0114675
-0.00388855
-0.00070914
0.00200605
0.0033661
-0.0073974
-0.0087055
-0.00035693
0.00489884
-0.00553796
-0.00808207
-0.00460917
-0.00262201
-0.00261188
0.00117104
-0.000877482
0.000563744
-0.0072904
-0.00642001
-0.000714383
0.00291368
-0.00188113
-0.00359337
0.00379924
-0.00128149
-0.0101486
-0.00526326
-0.00181148
-0.00884342
-0.0146682
-0.00939009
-0.0109661
-0.0137138
-0.00563742
-0.00186957
0.00340547
0.00339024
-0.00764462
-0.0103233
0.00283549
0.00364572
-0.00146887
-0.00751241
-0.0035774
-0.00346002
-0.00263316
-1.40635e-05
-0.000801643
-0.000351688
-0.00556393
-0.0106779
-0.00401063
0.0019724
-0.0020426
-0.0032531
0.00289576