/*--------------------------------*- C++ -*----------------------------------*\
| =========                 |                                                 |
| \\      /  F ield         | OpenFOAM: The Open Source CFD Toolbox           |
|  \\    /   O peration     | Version:  v1706                                 |
|   \\  /    A nd           | Web:      www.OpenFOAM.com                      |
|    \\/     M anipulation  |                                                 |
\*---------------------------------------------------------------------------*/
FoamFile
{
    version     2.0;
    format      ascii;
    class       volVectorField;
    location    "0";
    object      U;
}
// * * * * * * * * * * * * * * * * * * * * * * * * * * * * * * * * * * * * * //

dimensions      [0 1 -1 0 0 0 0];


internalField   nonuniform List<vector> 
61440
(
(0.0195612 7.51907e-06 0.00100394)
(0.0187899 -2.97233e-05 0.00178547)
(0.0225587 -2.01515e-05 0.00129854)
(0.0179908 -1.97757e-05 -0.00116348)
(0.0184307 8.42613e-06 -0.00206527)
(0.020096 1.65879e-05 -0.00084899)
(0.0226409 8.70652e-05 0.00150999)
(0.0295416 4.04724e-05 -0.00202173)
(0.0231169 -7.24846e-07 -0.0024098)
(0.0186246 -4.80173e-05 0.000924446)
(0.0202628 -1.06931e-05 0.0043401)
(0.022775 -4.06677e-05 0.00246061)
(0.0249949 -8.21419e-06 0.00091413)
(0.0243907 -4.09392e-06 0.000276929)
(0.0236056 -2.18236e-05 0.00167047)
(0.0266945 -6.19228e-06 -0.000808874)
(0.0243975 7.23372e-06 0.000170658)
(0.0265586 -1.1956e-05 0.000900346)
(0.0228884 -5.48417e-06 -0.00348667)
(0.0279525 -2.26303e-05 -0.000639605)
(0.0337298 -4.46377e-05 0.00111666)
(0.0357808 -6.6658e-05 -0.00304601)
(0.0332513 -4.78979e-05 4.87433e-05)
(0.0332434 -3.39736e-05 0.00523728)
(0.0309569 -5.76753e-05 0.00132745)
(0.034239 2.91582e-06 3.32791e-06)
(0.0374818 -9.49791e-07 0.00378129)
(0.0403993 -4.20055e-05 0.00338593)
(0.0250131 -1.97317e-05 0.00807399)
(0.0227938 4.25792e-05 0.00617944)
(0.0210288 2.26327e-05 0.00268128)
(0.0212189 2.781e-05 0.00043095)
(0.0708003 -0.000118222 0.00162841)
(0.0765521 -0.000166028 0.00472016)
(0.0817032 -0.000208731 0.00411934)
(0.0856581 8.35928e-05 -0.00527984)
(0.0694118 0.000143231 -0.00633589)
(0.082203 0.000508231 -0.00136781)
(0.114743 0.00102379 0.0238199)
(0.10676 0.000204425 -0.00549834)
(0.0957025 -2.37007e-05 -0.00826129)
(0.0712327 -0.000645432 0.000329575)
(0.0687348 -0.000973266 0.00141453)
(0.0689337 -0.000326833 0.00298502)
(0.0808081 0.00025427 0.00101747)
(0.0801089 0.000150956 -0.00269309)
(0.0736423 -0.000168473 -0.00517969)
(0.0952185 -0.000210336 -0.00664565)
(0.0989428 -0.000186896 0.00071583)
(0.0991274 -7.65492e-05 0.00236551)
(0.0836821 9.36002e-05 -0.00603981)
(0.0894436 -0.000144799 0.00190062)
(0.101371 -8.97316e-05 0.00473579)
(0.087427 -0.000128059 0.00447997)
(0.118492 -0.000416412 0.00014869)
(0.120303 -0.000435141 0.0171299)
(0.0845689 -1.25326e-05 0.0113197)
(0.0965443 -0.000447047 -0.00657745)
(0.108828 1.69937e-05 0.00710337)
(0.11141 0.000351333 0.0194538)
(0.0999635 -0.000257549 0.0262999)
(0.0931789 0.000182021 0.0214439)
(0.0802811 1.00685e-06 0.00983621)
(0.0735947 0.000185456 0.00257762)
(0.101238 -0.000636097 0.00955998)
(0.105199 -0.000687925 0.00936922)
(0.118749 -0.00039484 0.00542489)
(0.123229 0.000163353 -0.00726337)
(0.131956 0.000426059 -0.00224174)
(0.156358 0.000334529 0.00885285)
(0.160934 0.00165706 0.0299666)
(0.117691 -0.000515075 -0.00726693)
(0.106652 -0.000715763 0.0006511)
(0.103418 -0.000629187 0.0138979)
(0.107614 -0.000431528 0.0203023)
(0.0988101 -0.000601048 0.00458222)
(0.110651 0.000707004 -0.00166212)
(0.131885 -0.000269934 0.00292732)
(0.13468 -0.000731959 0.00134616)
(0.142909 -0.000181529 -0.00531424)
(0.143351 -0.000394977 0.000595081)
(0.149451 -0.000292655 0.00544751)
(0.120407 -0.000110573 -0.0149467)
(0.147993 -0.000554358 0.00128622)
(0.175594 -0.000977081 0.00466938)
(0.128463 -0.000228066 0.00619529)
(0.116906 -4.73163e-05 0.00121487)
(0.175476 -0.000922182 0.0228985)
(0.161765 -0.00105333 0.0056722)
(0.144962 -0.000368383 -0.00688417)
(0.155913 3.13012e-05 0.00983367)
(0.163782 0.000204484 0.0377547)
(0.149326 -0.000540441 0.0360063)
(0.127699 0.000554759 0.025858)
(0.11805 -0.000451657 0.00462149)
(0.106689 0.000340766 0.00390933)
(0.176995 -0.000425072 0.011756)
(0.180193 -0.00165544 0.0150521)
(0.17013 -0.000317974 0.0102515)
(0.203336 0.000351306 -0.0102423)
(0.216157 0.000979654 -0.00291579)
(0.256391 0.00094071 0.0141929)
(0.279916 0.00441449 0.0506718)
(0.212437 3.54264e-05 0.00405352)
(0.237997 -0.000909928 -0.00931488)
(0.200141 -0.00251028 -0.00460712)
(0.176199 -0.00134098 0.0330142)
(0.161735 -0.00138147 0.00836461)
(0.184521 0.00168261 -0.00402678)
(0.224863 -0.000852972 0.00356604)
(0.223918 -0.00164207 0.0126328)
(0.201285 0.000499011 -0.00701019)
(0.235067 -0.000780399 -0.00595977)
(0.225828 -0.000812056 -0.0126181)
(0.202418 -0.000187737 -0.0223039)
(0.211957 -0.00105167 -0.00390053)
(0.242796 -0.000360075 0.0023798)
(0.223987 -0.000429071 0.00818109)
(0.193531 -0.000203512 0.000902964)
(0.226224 0.000618834 0.0367821)
(0.237042 -0.00187298 0.00371074)
(0.233268 -0.0017002 -0.0184429)
(0.255147 3.24938e-06 0.0132149)
(0.268907 0.00129531 0.0384892)
(0.268031 -0.00160715 0.0537423)
(0.221904 0.00139209 0.0342041)
(0.200825 -7.32919e-05 0.0232279)
(0.181491 0.000736638 0.00751145)
(0.266723 -0.0030847 0.01663)
(0.264145 -0.00300532 0.0200829)
(0.259423 -0.00158187 0.0199081)
(0.244196 -0.000338871 0.0027752)
(0.250718 0.00231658 -0.00178777)
(0.357582 0.00182993 0.0179695)
(0.39941 0.00738168 0.0684907)
(0.396749 0.0038652 0.0333118)
(0.394169 -0.00128305 -0.0106108)
(0.319943 -0.00418508 -0.00360435)
(0.249375 -0.0075572 0.0118153)
(0.227183 -0.00248486 0.0130168)
(0.271842 0.00194154 0.00196432)
(0.291617 0.000798551 -0.00856727)
(0.276031 -0.00252644 -0.0116383)
(0.288237 0.0010871 -0.0117276)
(0.354676 -0.00256131 -0.000177263)
(0.352418 -0.000170294 0.00634817)
(0.290395 -0.000139267 -0.0135302)
(0.2849 -0.00172957 -0.00842928)
(0.345048 -0.000674923 2.66415e-05)
(0.336145 -0.000366552 0.00590864)
(0.274046 -0.000576528 -0.00167601)
(0.292265 -0.000408049 0.0188215)
(0.341262 -0.00320698 0.00462507)
(0.388533 -0.000773941 -0.0141161)
(0.425352 -0.00111186 0.0297577)
(0.380258 0.00140062 0.0431768)
(0.377633 -0.00213063 0.0532198)
(0.356502 0.00111141 0.0384304)
(0.30144 -0.000304847 0.0336212)
(0.280842 0.000646053 0.0190541)
(0.315019 -0.00386851 0.0151076)
(0.328688 -0.00225286 0.0143533)
(0.29083 -0.000317565 0.0140417)
(0.277714 -0.000573124 -0.00336821)
(0.29052 0.00316243 -0.0018618)
(0.293625 0.0040507 -0.00019771)
(0.350441 0.0089783 0.0405377)
(0.35792 -0.000703002 0.0067982)
(0.346422 -0.0029437 0.00675926)
(0.319972 -0.00358715 0.0209273)
(0.287186 -0.00244537 0.0475498)
(0.295326 -0.00248713 0.0344427)
(0.305085 0.003474 -0.00664551)
(0.338819 0.000953404 -0.00899191)
(0.319609 -0.00245936 -0.0137849)
(0.313494 0.00138715 -0.016039)
(0.350288 -0.00173439 -0.0159038)
(0.384023 -0.00179549 -0.0125002)
(0.344407 4.09506e-05 -0.0272256)
(0.37358 -0.00365019 -0.0185593)
(0.4468 -0.00692551 0.00411252)
(0.517721 -0.00775571 -0.0199399)
(0.474131 -0.00457102 -0.0126249)
(0.33134 -0.0011605 0.0134794)
(0.344506 -0.000843988 0.0371167)
(0.388105 -0.00314698 -0.0319828)
(0.405525 -0.000567679 0.00839664)
(0.431015 0.00153013 0.0401049)
(0.486727 -0.0058074 0.0727502)
(0.543225 -0.00373531 0.00486541)
(0.392592 0.00258018 0.020433)
(0.323371 0.00162593 0.00602525)
(0.415403 -0.00193809 0.00565575)
(0.424697 -0.00390803 0.013416)
(0.421098 -0.000197978 0.011915)
(0.410902 6.17926e-05 -0.0190573)
(0.424722 0.00174452 -0.0141759)
(0.497987 0.00359603 0.022056)
(0.441823 0.0112432 0.0472933)
(0.49038 0.00371953 0.0519488)
(0.451999 -0.002371 0.000894319)
(0.427167 -0.00400536 0.0209122)
(0.391123 -0.0118036 0.0185453)
(0.320149 -0.00385999 0.027459)
(0.381975 0.00414855 -0.00302741)
(0.440344 -0.000655981 -0.012758)
(0.422602 -0.00420707 -0.0132605)
(0.422163 0.00218998 -0.0178693)
(0.475498 -0.00480486 -0.0176878)
(0.474918 -0.00440492 -0.0126864)
(0.446113 0.000435242 -0.0230013)
(0.382637 -0.0034555 -0.0218596)
(0.464809 -0.00265747 -0.0112643)
(0.529503 -0.00130577 -0.00515393)
(0.398533 -0.000996958 -0.00759998)
(0.398416 -0.00327594 0.00139)
(0.481225 -0.00701227 0.0145019)
(0.478043 -0.00165844 -0.041692)
(0.490967 -0.00114704 -0.000952412)
(0.509367 0.00180994 0.0193789)
(0.623135 -0.010136 0.0673475)
(0.529651 0.00262482 0.043686)
(0.487493 -0.00335524 0.0611655)
(0.426058 0.00141218 0.0332136)
(0.46506 -0.00595551 0.0204113)
(0.44543 -0.0066003 0.0282302)
(0.4826 -0.00262825 0.0199827)
(0.464518 -0.000639307 -0.00237726)
(0.460284 0.0014333 -0.0202324)
(0.539916 0.00452833 0.0233212)
(0.60825 0.00981109 0.0843557)
(0.642244 0.00793238 0.0830964)
(0.517253 -0.00304312 0.00922179)
(0.440183 -0.00311925 0.0268411)
(0.444431 -0.0125889 0.0203254)
(0.387071 -0.00539566 0.0413874)
(0.4737 -0.00217192 0.00890127)
(0.463636 0.00101111 -0.00694713)
(0.483867 -0.00582109 -0.0128606)
(0.436968 0.00110799 -0.0182907)
(0.476004 -0.00350592 -0.0253964)
(0.529224 -0.00352717 -0.0141521)
(0.495332 0.000724996 -0.0186244)
(0.491461 -0.0043577 -0.0330529)
(0.549389 -0.0112437 -0.0137487)
(0.653142 -0.0124892 -0.00826361)
(0.626676 -0.00651013 -0.0167924)
(0.620166 -0.0131478 -0.0121888)
(0.619005 -0.00653063 0.0381367)
(0.536169 -0.00363456 -0.0370312)
(0.610857 -0.00371882 0.0193375)
(0.690446 -0.017852 0.0515693)
(0.746113 -0.028994 0.00307397)
(0.751135 -0.00428072 -0.012776)
(0.627097 0.000938015 0.0153813)
(0.502961 0.00143159 0.0248833)
(0.567356 -0.00267799 0.0270511)
(0.566594 -0.00575452 0.0240239)
(0.50626 0.000803749 0.0283736)
(0.474741 -0.000981191 -0.00311791)
(0.56889 0.0011815 -0.00920309)
(0.616348 0.00642118 0.0224449)
(0.550545 0.0153582 0.0522068)
(0.72879 0.0111412 0.104401)
(0.816413 -0.0109037 0.0109538)
(0.579417 -0.000814328 0.0189425)
(0.439785 -0.000868849 0.0326509)
(0.393391 -0.00605853 0.0459655)
(0.457685 -2.65086e-05 0.0454722)
(0.516873 -4.07718e-05 -0.00032593)
(0.569447 -0.00742805 -0.00860458)
(0.543104 0.00210933 -0.0181804)
(0.544817 -0.00411705 -0.0273026)
(0.58471 -0.00754784 -0.0193416)
(0.566323 -0.00193405 -0.0128372)
(0.471445 -0.00264674 -0.0295884)
(0.587235 -0.0138618 -0.019114)
(0.699143 -0.0143667 0.00188134)
(0.692845 -0.00726045 -0.0104298)
(0.68152 -0.0131581 -0.00889495)
(0.701298 -0.00761883 0.0273563)
(0.604121 -0.00381559 -0.0389872)
(0.66427 -0.00475952 0.0104864)
(0.677781 -0.00889693 0.0232862)
(0.790123 -0.0367129 0.014869)
(0.694536 -0.00265349 0.0532744)
(0.673697 -0.00322866 0.0588738)
(0.590099 0.00408668 0.0536537)
(0.615339 -0.00621094 0.0451931)
(0.599116 -0.00734177 0.0382261)
(0.568108 -0.00330483 0.0406775)
(0.536072 0.00130177 0.0132126)
(0.544521 -0.00081708 -0.0414777)
(0.668105 0.00977155 0.0278286)
(0.58348 0.0159924 0.0499894)
(0.673133 0.0137071 0.0802542)
(0.648312 -0.00140083 0.0127931)
(0.571865 0.00269909 0.019374)
(0.467091 0.000406836 0.0212382)
(0.455948 -0.00433016 0.0356683)
(0.471208 -0.000758451 0.0550736)
(0.574268 -0.00383934 -0.00121133)
(0.59857 -0.00852573 -0.00382499)
(0.559678 -0.00184535 -0.0196007)
(0.577978 -0.00415812 -0.0280689)
(0.613141 -0.00853606 -0.0216095)
(0.600419 -0.00124975 -0.0102114)
(0.503486 -0.00101775 -0.0304108)
(0.525087 -0.00841743 -0.0391256)
(0.662697 0.00444291 -0.00835246)
(0.587611 0.00126979 -0.000422687)
(0.552713 -0.00418797 0.00304551)
(0.55846 -0.00597266 0.0361229)
(0.637748 -0.00943986 -0.0319405)
(0.612074 0.00211909 -0.0244062)
(0.598662 0.000804369 -0.0174563)
(0.803445 -0.0404637 0.0164165)
(0.882859 -0.0186864 -0.0194605)
(0.707096 -0.00527664 0.0510216)
(0.634818 0.00651444 0.0419825)
(0.700659 -0.00701485 0.032401)
(0.692524 -0.00810754 0.0243845)
(0.643662 -0.000175585 0.0451741)
(0.598782 0.00447474 0.026511)
(0.51909 0.00174359 -0.0305796)
(0.58751 0.0163598 -0.00822333)
(0.640342 0.0210694 0.0412999)
(0.71697 0.0190973 0.0686864)
(0.855844 -0.0217163 0.0286777)
(0.70166 0.00845015 0.0202198)
(0.52829 0.00772248 0.0179547)
(0.508188 0.00308621 0.017855)
(0.543978 -0.00261499 0.0431601)
(0.600003 -0.00749089 0.0151981)
(0.635218 -0.0113595 0.00597408)
(0.69616 -0.0071238 0.00402428)
(0.646426 -0.00357938 -0.0295765)
(0.65202 -0.00805584 -0.0278805)
(0.642833 0.00490534 -0.0268614)
(0.570753 0.00503107 -0.0268729)
(0.5535 -0.00677261 -0.0364112)
(0.637291 -0.00450341 -0.0361461)
(0.745588 -0.00684284 0.0109532)
(0.603364 -0.000143566 -0.00210457)
(0.605959 -0.00414613 0.0250459)
(0.683998 -0.00453715 -0.0572699)
(0.667602 0.00541623 -0.0375354)
(0.647335 0.000838293 -0.0225988)
(0.755208 -0.032994 -0.0179)
(0.817077 -0.0179678 0.0446919)
(0.78205 -0.0046993 0.0508498)
(0.710677 0.00934036 0.0336656)
(0.772854 -0.00736425 0.0192945)
(0.775278 -0.0054649 0.0215598)
(0.688015 0.00963251 0.0418995)
(0.668068 0.00941046 0.0373011)
(0.582474 0.00298649 -0.0317575)
(0.774936 0.0154682 0.00846898)
(0.796831 0.0178808 0.0637257)
(0.809627 0.0166972 0.103208)
(0.85094 -0.0266633 0.040121)
(0.732329 0.0210659 0.0283294)
(0.595164 0.0177903 0.02428)
(0.578039 0.0167383 0.016045)
(0.567259 0.00452542 0.038468)
(0.570159 -0.00488528 0.0562026)
(0.692924 -0.0214541 0.0237162)
(0.703755 -0.0104271 -0.00829906)
(0.655014 -0.00219404 -0.0218893)
(0.687806 -0.00741402 -0.0262111)
(0.686357 0.00323696 -0.0286199)
(0.66135 0.00971133 -0.00532728)
(0.619158 0.000543338 -0.0196844)
(0.717587 -0.00333763 0.0267579)
(0.765381 -0.00510263 0.0170465)
(0.798097 -0.00873627 0.0055891)
(0.783141 -0.000290816 0.0116017)
(0.725402 -0.00391223 -0.0401045)
(0.748444 0.00181235 -0.0365803)
(0.748653 -6.95366e-05 -0.000523285)
(0.883539 -0.06013 0.00572091)
(0.941093 -0.0477538 0.0091415)
(0.842852 -0.00191963 0.0497211)
(0.771855 0.0110036 0.0362991)
(0.797944 -0.00867827 0.0210252)
(0.800904 -0.00708442 0.0347007)
(0.772036 0.00088463 0.0295704)
(0.752286 0.0105897 0.0349716)
(0.607918 0.00476815 -0.0130557)
(0.634767 0.0212869 -0.0308941)
(0.705008 0.0307576 0.022579)
(0.783432 0.0325416 0.102435)
(0.847398 -0.0258832 0.0440043)
(0.985165 -0.0147487 0.0370292)
(0.685601 0.0273423 0.0217123)
(0.60546 0.0233772 0.0221094)
(0.570811 0.00128891 0.0798894)
(0.622663 -0.0120137 0.0443139)
(0.670311 -0.0209793 0.0155849)
(0.691818 -0.0157209 0.000484152)
(0.703093 -0.00340145 -0.024807)
(0.68102 -0.00777181 -0.0215698)
(0.656263 0.000699741 -0.0432106)
(0.696721 0.016427 -0.0002017)
(0.608171 0.00529417 -0.0351651)
(0.644625 3.60457e-05 -0.0495884)
(0.729232 0.021234 0.00327498)
(0.696517 0.0132831 -0.00401713)
(0.676859 0.00696911 0.00804307)
(0.718942 -0.00831923 -0.0200443)
(0.764437 0.00486743 -0.0405209)
(0.771616 -0.0156167 0.0191505)
(0.792608 -0.0456884 -0.03137)
(0.900238 -0.0250268 0.0436009)
(0.88808 -0.00844297 0.0592624)
(0.793699 0.0130885 0.0352508)
(0.820315 -0.0134479 0.0235507)
(0.844164 -0.00591042 0.0273581)
(0.754385 0.0126958 0.0514195)
(0.751865 0.0181015 0.0438552)
(0.668063 0.012043 -0.00257456)
(0.648162 0.0224824 -0.0445082)
(0.738621 0.0389472 0.00275114)
(0.808861 0.0402855 0.0942689)
(0.844873 -0.021529 0.0487691)
(0.813194 0.0213811 0.0358483)
(0.691637 0.0370088 0.0423448)
(0.651374 0.0389318 0.0367789)
(0.630376 0.0192344 0.0368733)
(0.64701 -0.0148004 0.0515466)
(0.673804 -0.0278944 0.0248838)
(0.709045 -0.0155206 -0.00615843)
(0.668985 0.00516413 -0.0216353)
(0.703394 -0.000856716 -0.0179787)
(0.702521 0.00840993 -0.020031)
(0.685146 0.0256699 -0.00396811)
(0.639653 0.0148095 -0.0453036)
(0.655842 0.0129953 -0.0533379)
(0.746602 0.0293056 0.00725227)
(0.724478 0.0243151 0.00526435)
(0.719625 0.0179711 0.0117026)
(0.799182 -0.00211634 -0.0295692)
(0.794252 0.00917845 -0.0500176)
(0.807506 -0.0114816 0.0216087)
(0.853919 -0.0601654 -0.00194129)
(0.917566 -0.0329677 0.0221976)
(0.872978 0.00785969 0.0425125)
(0.923888 -0.00743823 0.0044875)
(0.912832 -0.0330212 -0.03156)
(0.82027 0.00258841 0.0371996)
(0.778402 0.00550488 0.0466773)
(0.766888 0.0182134 0.0399067)
(0.697615 0.0173555 0.00176918)
(0.698233 0.0324103 -0.0434307)
(0.752778 0.0429808 -0.00662468)
(0.847489 0.0234312 0.10407)
(0.84423 -0.0192629 0.0507454)
(0.834388 0.0255053 0.0310296)
(0.779165 0.0447894 0.0527613)
(0.666606 0.0449853 0.0476535)
(0.631222 0.0338621 0.0375518)
(0.694734 -0.00286838 0.0215792)
(0.684255 -0.0320495 0.0238412)
(0.705192 -0.00992355 -0.0255974)
(0.67752 0.0067901 -0.0237074)
(0.712088 0.00146301 -0.0154037)
(0.707584 0.00445079 -0.0265704)
(0.671031 0.0240149 0.00333685)
(0.640819 0.0284964 0.00532071)
(0.742297 0.0153749 0.0180541)
(0.810056 0.00412091 0.0465019)
(0.835609 -0.00803339 0.0260509)
(0.742039 0.0224383 0.0169264)
(0.76475 0.00289797 -0.00397603)
(0.812233 0.00266708 -0.0519363)
(0.821637 -0.00593608 -0.0233986)
(0.873666 -0.0528796 -0.0427898)
(0.910623 -0.0352798 0.0170217)
(0.868342 0.0112709 0.0303992)
(0.913216 -0.0115195 0.00405447)
(0.944544 -0.0556477 -0.0376882)
(0.910628 -0.00763049 0.013982)
(0.809095 -0.0263902 -0.00972801)
(0.812427 -0.0158507 -0.00635901)
(0.77441 0.0131359 -0.0106858)
(0.763771 0.0110562 -0.0371621)
(0.780301 0.0479604 -0.0193707)
(0.855172 0.0437439 0.0835447)
(0.882347 0.0311851 0.0698953)
(0.875243 0.0464597 0.0328265)
(0.902393 0.0455808 0.0359767)
(0.688134 0.0543227 0.0583813)
(0.681381 0.0255259 0.0591553)
(0.674814 0.000803921 0.0333752)
(0.730324 -0.0395869 0.0166841)
(0.757657 0.00553399 -0.0123428)
(0.784689 0.0181388 -0.0224195)
(0.687791 0.012975 -0.0347945)
(0.691201 0.0126106 -0.0127463)
(0.654624 0.0405972 0.0125839)
(0.678805 0.039644 -0.0105511)
(0.691348 0.042555 -0.0569148)
(0.830095 0.00247389 0.0217446)
(0.854458 -0.0106946 0.0164671)
(0.874077 0.00953164 0.0174096)
(0.88189 2.11198e-06 0.00669427)
(0.820731 0.0106926 -0.0399281)
(0.851674 -0.0126605 -0.00470313)
(0.936055 -0.0839717 -0.0349872)
(0.936532 -0.0612342 0.00556968)
(0.851651 0.0105454 0.0111664)
(0.839452 0.00484693 0.0103248)
(0.984808 -0.0605189 -0.011433)
(0.959025 -0.00892166 -0.0109724)
(0.915529 -0.0108907 0.000798554)
(0.836814 -0.0294355 -0.0223972)
(0.819939 0.0254779 0.0112785)
(0.775752 0.0185979 -0.0394448)
(0.914152 0.0337602 0.00240531)
(0.857026 0.0523242 0.0403436)
(0.899339 0.0352637 0.0442656)
(0.895159 0.0465246 0.0128177)
(0.86887 0.0693368 0.0555448)
(0.72035 0.0629822 0.0644443)
(0.726595 0.0357659 0.0550827)
(0.719217 0.0284233 -0.0245965)
(0.830347 -0.046431 0.00840958)
(0.795307 0.010102 -0.0175371)
(0.82799 0.0236885 -0.0301742)
(0.763259 0.000581261 -0.0088621)
(0.702364 0.0101061 -0.00804668)
(0.662173 0.0368773 0.0190448)
(0.698093 0.0573609 -0.00703445)
(0.729031 0.0549972 -0.0612263)
(0.779874 0.051356 -0.0337132)
(0.831801 0.0522305 -0.00151737)
(0.810076 0.0361338 0.0320106)
(0.889069 -0.00480814 0.0167562)
(0.888359 -0.00299843 -0.0100909)
(0.90624 0.0107707 -0.0456465)
(0.94067 -0.0590165 -0.063275)
(0.86981 -0.0313859 -0.00702688)
(0.872936 -0.00344118 0.00853585)
(0.906596 -0.00136274 0.00433539)
(1.02461 -0.0693665 -0.00920491)
(0.968606 -0.00415342 -0.00269747)
(0.8226 -0.00283309 0.00217017)
(0.804129 0.00921857 -0.0105292)
(0.817672 0.0261684 0.00158559)
(0.773046 0.0191191 -0.0456678)
(0.861468 0.0204401 -0.0447389)
(0.931109 0.0378392 0.0408706)
(0.885881 -0.0019284 0.0630529)
(0.921432 0.0630895 0.0183522)
(1.02871 0.0443248 0.0374291)
(0.871291 0.0421909 0.0537386)
(0.766201 0.0423589 0.0728282)
(0.765997 0.019001 0.0057325)
(0.893079 -0.0487252 0.00243254)
(0.835311 -0.0160592 0.00345991)
(0.854155 0.025761 -0.0364793)
(0.73822 0.0165327 -0.0215503)
(0.721559 0.00257792 -0.00116074)
(0.665183 0.0414154 0.0251583)
(0.683178 0.0754874 0.0261082)
(0.718518 0.062619 -0.0321977)
(0.864128 -0.023372 -0.0516165)
(0.918643 -0.029819 -0.030767)
(0.898285 -0.00250141 0.0116825)
(0.868962 0.0184407 -0.00272572)
(0.915367 0.00920265 -0.0268983)
(0.943245 0.00825376 -0.0527575)
(0.952735 -0.0526866 -0.0790155)
(0.925067 -0.0683088 -0.0396207)
(0.92476 -0.0130289 0.0172744)
(0.965218 -0.0278722 0.0127797)
(1.05436 -0.0878961 0.00129832)
(0.984796 -0.0113922 -0.0134573)
(0.983555 -0.0234883 -0.00649894)
(0.891447 -0.00954832 -0.0351591)
(0.845888 0.0246307 -0.0318706)
(0.810003 0.0140532 -0.0720088)
(0.748365 0.0267922 -0.0844655)
(0.913052 0.0299687 0.0021962)
(0.924759 0.00625977 0.0749629)
(0.922537 0.012595 0.0391656)
(1.01259 0.0324194 0.0411749)
(0.977446 0.0461561 0.0584178)
(0.805778 0.0477753 0.0642688)
(0.837644 0.018328 0.0187944)
(0.979462 -0.0506977 0.00888827)
(0.938816 -0.0284555 0.0484552)
(0.898159 0.0254508 -0.0444368)
(0.857116 0.00377387 -0.0288097)
(0.761398 0.00857272 -0.00925732)
(0.696257 0.045953 0.0427974)
(0.697325 0.097756 0.0243518)
(0.729308 0.0727778 -0.0477226)
(0.829852 -0.0389327 -0.0655004)
(0.87888 0.0281629 -0.0233232)
(0.898428 0.0249579 0.0507031)
(0.873094 0.0293731 -0.0222577)
(0.921567 -0.00329546 -0.0263032)
(0.983836 -0.0131354 -0.0674498)
(0.983317 -0.0405968 -0.0771573)
(0.954359 -0.0349708 -0.0360769)
(0.979866 -0.0100553 0.0015391)
(0.951653 -0.0517074 0.0301684)
(1.00275 -0.117576 0.0187505)
(0.96612 -0.0205708 -0.0237623)
(0.988681 -0.0424328 -0.0236777)
(1.02272 -0.0425497 -0.00819669)
(0.946376 0.020163 -0.0848036)
(0.933145 0.00229573 -0.102102)
(0.835827 0.00141854 -0.123118)
(0.8977 0.00715564 -0.00202563)
(0.908964 0.0207354 0.0509774)
(0.911964 0.0265541 0.0270595)
(0.940447 0.0208236 0.0324421)
(1.00296 0.0175878 0.0416817)
(0.909998 0.0545967 0.116096)
(0.923043 -0.00177982 0.0904076)
(0.991546 -0.0595662 0.046331)
(0.930742 -0.0139685 0.0637783)
(0.890285 0.024472 -0.0694837)
(0.848602 0.00405544 -0.0799585)
(0.749875 0.0232569 0.023347)
(0.698908 0.0720591 0.0634588)
(0.712982 0.116436 0.0127124)
(0.778888 0.0215182 -0.0649905)
(0.914114 -0.0819372 -0.0586911)
(0.984864 -0.0922767 -0.0712894)
(0.980471 -0.0069342 0.0138249)
(0.910998 0.0232401 0.0339585)
(0.917989 0.0317884 -0.0470689)
(1.00281 -0.00682847 -0.0510361)
(1.05623 -0.0232467 -0.0769309)
(0.994709 -0.0101569 -0.0792158)
(1.00379 0.00527511 -0.0376504)
(1.03703 -0.0287788 0.019741)
(1.01246 -0.0934965 0.00868675)
(0.9997 -0.0252293 -0.0201312)
(1.01022 -0.062612 -0.00256625)
(1.02182 -0.0597033 0.0157882)
(1.0132 -0.0101838 -0.0183072)
(1.00535 -0.00417388 -0.0457562)
(0.843837 0.00394632 -0.0906156)
(0.817204 0.00842898 -0.0799049)
(0.878943 0.0704679 0.0103821)
(0.92133 0.109546 -0.00746679)
(0.925788 0.0997532 0.0139015)
(0.966153 0.0436616 0.0533228)
(1.00021 0.0207802 0.0619745)
(0.958934 -0.013719 0.122093)
(0.999741 -0.0636978 0.0573656)
(0.930688 0.0115564 0.0647772)
(0.939885 0.0309685 -0.0147845)
(0.837971 -0.00604319 -0.0736747)
(0.793172 0.0180378 0.0315642)
(0.75654 0.0644778 0.0676888)
(0.749281 0.10441 0.0130638)
(0.718608 0.0979306 -0.0731704)
(0.944227 -0.0841024 -0.0307443)
(0.998254 -0.0970505 -0.0577547)
(1.02481 -0.0334093 -0.00276214)
(0.94617 0.0113287 0.010869)
(0.938615 0.00624895 -0.0252872)
(0.99194 -0.00367513 -0.0383428)
(0.99705 -0.0108304 -0.0625838)
(0.99374 0.00853975 -0.0620477)
(0.999666 0.010345 -0.0427102)
(1.03837 -0.029343 -0.00233392)
(1.01011 -0.106917 0.0408612)
(1.03577 -0.0530264 -0.00278901)
(1.00398 -0.0534486 0.029735)
(1.01983 -0.0649551 0.0104875)
(1.02164 -0.042187 0.0282156)
(1.0881 -0.0422575 0.0447838)
(1.03322 -0.0101026 -0.0346918)
(0.882816 0.00244382 -0.0942135)
(0.835537 0.0610045 -0.0332787)
(0.903108 0.0304941 -0.0281588)
(0.932111 0.0101405 -0.0285007)
(0.945145 -0.0495992 -0.0111517)
(0.999285 -0.00362106 0.0249416)
(1.01162 -0.0269902 0.120595)
(1.02587 -0.0650783 0.0692604)
(0.969983 -0.0341899 0.0898994)
(0.984316 0.0309448 0.0339794)
(0.95754 0.00419511 -0.0518489)
(0.844841 0.00845523 -0.00301045)
(0.817417 0.0657322 0.0579537)
(0.765394 0.108898 0.0182015)
(0.785292 0.0443777 -0.043914)
(0.888122 -0.0174025 -0.00887945)
(1.00569 -0.05638 -0.026186)
(1.00593 -0.0663405 -0.0382535)
(0.956437 -0.00362871 0.0371201)
(0.941304 0.0167321 0.0126839)
(0.93789 0.00326879 0.00387423)
(1.0304 -0.00450856 -0.0547717)
(1.02237 0.029508 -0.0751488)
(1.00201 0.0188593 -0.0409534)
(1.0178 -0.0345096 0.00221666)
(1.02326 -0.0688567 0.0414472)
(1.03085 -0.0669859 0.0110798)
(1.05125 -0.0464681 0.027449)
(1.00647 -0.0571696 0.0246474)
(1.03405 -0.0472914 0.0256395)
(1.09723 -0.059673 0.0655243)
(1.11138 -0.023415 0.00515901)
(0.942849 0.0112536 -0.0861164)
(0.821415 0.0533674 -0.0506941)
(0.909761 0.0156685 -0.0576255)
(0.935782 -0.00259639 -0.0558558)
(0.941732 -0.0618944 -0.0150973)
(1.0283 -0.0352572 0.0197982)
(1.02365 -0.0290181 0.0902538)
(1.05561 -0.0652925 0.0711564)
(1.01929 -0.048973 0.0914762)
(1.03737 0.0140727 0.0215821)
(1.00222 0.000615024 -0.0682561)
(0.865554 0.00798799 -0.0122866)
(0.835385 0.0909205 0.0251017)
(0.771061 0.0855398 -0.0850568)
(0.846948 -0.00452504 -0.0257085)
(0.975092 -0.0738631 0.0514477)
(1.03629 -0.0768955 0.0224993)
(1.03436 -0.0683503 -0.0357843)
(1.00619 0.0102555 0.00855295)
(0.958626 0.0233521 0.0237749)
(0.93355 0.00928772 0.0213646)
(1.00809 0.00282105 -0.0348579)
(1.02431 0.0415411 -0.0781421)
(1.02113 0.0295988 -0.0594824)
(1.01288 -0.0214427 0.00396193)
(1.03698 -0.0547579 0.0309151)
(1.03039 -0.0705043 0.0311192)
(1.03002 -0.0422762 0.0293581)
(0.982265 -0.0335356 0.0463261)
(1.06692 -0.0511336 0.037315)
(1.12924 -0.072871 0.0539338)
(1.14068 -0.0573655 0.0466158)
(1.01837 0.0319947 -0.0439654)
(0.865309 0.0428721 -0.082196)
(0.919731 -0.0171546 -0.0791181)
(0.946072 -0.0337275 -0.0912574)
(0.982175 -0.0571089 -0.0478049)
(1.0229 -0.0687532 -0.0253892)
(1.06333 -0.0431031 0.0540666)
(1.1015 -0.0637288 0.0718204)
(1.03739 -0.0397334 0.0858856)
(1.00822 0.0188387 0.0737242)
(1.05297 -0.00778484 -0.0161267)
(0.957531 0.00757702 -0.0226685)
(0.892533 0.0864783 0.0215977)
(0.8919 0.0440249 -0.0740366)
(0.89289 0.0192012 -0.0764233)
(0.936349 -0.0316838 0.0266537)
(1.05851 -0.0578734 0.0259977)
(1.10245 -0.0562926 -0.0256092)
(0.983475 -0.032047 -0.0216392)
(0.9587 0.0310594 0.0193902)
(0.926669 0.0173189 0.0333295)
(0.944568 0.0269295 0.00331777)
(0.99221 0.0537828 -0.0656066)
(1.00583 0.0391543 -0.0610328)
(1.01545 0.0220796 -0.041809)
(1.06015 -0.00244062 -0.0381532)
(1.05737 -0.0347383 0.00755184)
(1.07865 -0.0475021 0.0214876)
(1.06766 -0.000607689 0.0124263)
(1.04198 -0.0283957 -0.00804925)
(1.12064 -0.0704678 0.0278951)
(1.14502 -0.05958 0.0458047)
(0.959658 0.0382153 -0.0571557)
(0.933425 0.0252598 -0.0826314)
(0.927096 0.0201765 -0.0853466)
(0.943785 -0.0181856 -0.118139)
(0.986187 -0.0428554 -0.100339)
(1.05036 -0.0822518 -0.042895)
(1.05933 -0.0591608 -0.0123601)
(1.1319 -0.0617915 0.0450052)
(1.05413 -0.00993945 0.0880312)
(1.03025 0.00577476 0.0790848)
(1.0727 -0.0252072 0.0313564)
(1.06183 0.0147634 0.0183929)
(1.02334 0.0655144 0.0293103)
(1.06789 0.0257427 0.0315298)
(1.00314 0.0221248 -0.0498549)
(0.97841 0.00289201 -0.00374148)
(1.04789 -0.033048 0.059859)
(1.08036 -0.0295574 -0.0168721)
(1.05349 -0.0218701 -0.0284481)
(0.938882 0.0233015 0.00617258)
(0.919496 0.0352493 0.00996561)
(0.950001 0.0363599 0.010649)
(1.01279 0.0598297 -0.0661177)
(1.00197 0.0409328 -0.0660602)
(1.02117 0.025308 -0.0813997)
(1.05336 0.0217378 -0.103291)
(1.08699 -0.0277922 -0.00919398)
(1.09027 -0.0337343 0.0179719)
(1.06471 0.00926634 -0.0048831)
(1.07875 -0.0185008 -0.0217611)
(1.09079 -0.0568949 0.0238331)
(1.15458 -0.0505528 0.0438505)
(1.03139 0.0208975 0.0103468)
(0.975019 0.0346666 -0.0604622)
(0.948532 0.0245332 -0.0785173)
(0.950728 -0.00193381 -0.11135)
(1.00728 -0.0446723 -0.094681)
(1.05671 -0.0656503 -0.0425418)
(1.03738 -0.0538607 -0.020566)
(1.07521 -0.0687555 0.0102657)
(1.09523 -0.0381519 0.0675841)
(1.05661 0.00754852 0.0780053)
(1.05946 -0.0159585 0.064719)
(1.08362 0.00203081 0.0438853)
(1.07008 0.0452692 0.0396787)
(1.09998 0.0213411 0.0347274)
(1.05309 0.024292 -0.0332477)
(1.01088 0.02085 -0.0275666)
(1.00709 -0.00572766 0.0363964)
(1.09361 -0.0179536 0.0350529)
(1.08579 -0.0147789 -0.0117258)
(0.945949 0.0417473 0.00719308)
(0.939274 0.0459508 0.0171947)
(0.985937 0.0573723 0.00343188)
(1.01481 0.0693976 -0.0207579)
(1.0175 0.050686 -0.0769946)
(1.01532 0.0323588 -0.09991)
(1.08489 0.00593632 -0.106632)
(1.11626 -0.00384823 -0.0168456)
(1.11196 -0.0305848 0.00606843)
(1.11301 -0.0318511 0.00048778)
(1.1079 -0.0212365 -0.0289544)
(1.12053 -0.0325313 -0.020893)
(1.13847 -0.0499151 0.0336261)
(1.17102 0.017845 0.020257)
(1.11914 0.0516164 -0.0101275)
(1.04971 0.0532456 -0.00847184)
(1.04974 0.026236 -0.013117)
(1.0967 -0.0291857 -0.0118457)
(1.13099 -0.0510256 0.00616558)
(1.1074 -0.0194191 -0.0160016)
(1.0878 -0.0365779 -0.0273285)
(1.09566 -0.0202325 0.0253426)
(1.08475 0.00993593 0.0510125)
(1.10308 -0.0143987 0.0519286)
(1.10506 0.0129554 0.0935197)
(1.08869 0.0242415 0.100403)
(1.09767 -0.00548496 0.0532933)
(1.10101 0.00223793 0.00153701)
(1.06132 0.0268221 -0.00114567)
(1.05806 0.0150945 0.0240733)
(1.06408 0.00659272 0.053999)
(1.08374 -0.00439865 0.0412079)
(1.05028 0.0198434 -0.00826744)
(1.05369 0.0114762 -0.0174581)
(1.02252 0.0431365 0.0105094)
(1.02674 0.0543776 0.0118172)
(1.02525 0.0588338 -0.0463698)
(1.04356 0.0296217 -0.10958)
(1.1131 0.0128582 -0.0916569)
(1.13499 0.00408048 -0.0381621)
(1.10552 -0.00311481 0.0102415)
(1.09627 -0.0274108 -0.00530508)
(1.14478 -0.0264275 -0.0246245)
(1.12257 -0.0306037 -0.0219675)
(1.11594 -0.0335529 0.010306)
(1.12264 0.0339099 0.0078995)
(1.07125 0.0770348 -0.00863212)
(1.07544 0.061982 -0.0043169)
(1.09884 0.0220449 0.0136518)
(1.13228 -0.0437306 0.00150471)
(1.12189 -0.0422674 0.00771944)
(1.11666 -0.0153389 0.0118418)
(1.10351 -0.0234814 -0.0260821)
(1.08828 0.00354769 0.0276298)
(1.09421 0.00563328 0.046585)
(1.12293 -0.0165518 0.0378823)
(1.11874 -0.00132416 0.0646206)
(1.11769 0.0113367 0.108066)
(1.12558 -0.0235259 0.0809321)
(1.09742 0.00861199 0.00308502)
(1.06129 0.0335992 0.0126412)
(1.06661 0.0164889 0.0360089)
(1.07642 0.0161942 0.035967)
(1.08223 0.00370284 0.0441739)
(1.0892 0.0121481 0.00529053)
(1.09712 0.00708434 -0.0226731)
(1.06456 0.0351314 -0.000540064)
(1.05091 0.0424484 -0.00544766)
(1.04908 0.0463301 -0.0212263)
(1.10664 0.0218634 -0.0717812)
(1.14141 0.0219766 -0.0423887)