/*--------------------------------*- C++ -*----------------------------------*\
| =========                 |                                                 |
| \\      /  F ield         | OpenFOAM: The Open Source CFD Toolbox           |
|  \\    /   O peration     | Version:  v1706                                 |
|   \\  /    A nd           | Web:      www.OpenFOAM.com                      |
|    \\/     M anipulation  |                                                 |
\*---------------------------------------------------------------------------*/
FoamFile
{
    version     2.0;
    format      ascii;
    class       volScalarField;
    location    "0";
    object      k;
}
// * * * * * * * * * * * * * * * * * * * * * * * * * * * * * * * * * * * * * //

dimensions      [0 2 -2 0 0 0 0];


internalField   nonuniform List<scalar> 
98304
(
1.04815e-05
1.16653e-05
1.53397e-05
9.30418e-06
1.06021e-05
2.21563e-05
1.32673e-05
9.04458e-06
8.90116e-06
4.99944e-06
8.31977e-06
7.4533e-06
6.53824e-06
7.60193e-06
1.02132e-05
2.64274e-05
1.47591e-05
2.63738e-05
1.25753e-05
8.60704e-06
1.83026e-05
1.57195e-05
1.67405e-05
1.96721e-05
2.96915e-05
2.90512e-05
9.27302e-06
9.04302e-06
5.50857e-06
9.87872e-06
7.56948e-06
9.94539e-06
3.8476e-05
5.08247e-05
5.99443e-05
4.18845e-05
5.00274e-05
4.28747e-05
5.13289e-05
3.91745e-05
3.50084e-05
3.26621e-05
3.53104e-05
3.5361e-05
3.36823e-05
7.3363e-05
0.000115839
7.43737e-05
6.48503e-05
0.00010231
5.32921e-05
5.62988e-05
6.5648e-05
6.7199e-05
6.79552e-05
7.12321e-05
5.57992e-05
0.000109931
2.47951e-05
2.36404e-05
2.57586e-05
3.94287e-05
3.29991e-05
2.16296e-05
6.38762e-05
0.000136272
0.000150155
0.000115592
0.000138499
9.52596e-05
0.000139134
0.00010582
9.41724e-05
8.77873e-05
9.89967e-05
0.000167017
0.000169122
0.00019652
0.000242238
0.000219673
0.000190389
0.000227188
0.000196287
0.000155401
0.000232956
0.000187468
0.000184122
0.000216756
0.000304153
0.000297986
6.94608e-05
6.57272e-05
7.11186e-05
0.000106757
9.10358e-05
6.00261e-05
0.00013729
0.000178436
0.000305213
0.000236389
0.000295968
0.000256344
0.00028828
0.00012673
0.000131856
0.000136644
0.00019511
0.000203426
0.000193375
0.000399791
0.000487382
0.000450857
0.000390033
0.000441334
0.000312439
0.000213411
0.00039009
0.000440016
0.000404106
0.000441883
0.000323079
0.00026854
0.000166074
0.000135467
0.000145746
0.000232069
0.000189397
0.000123878
0.000240523
0.000482937
0.000528571
0.000428497
0.000493523
0.000828766
0.000514218
0.00034718
0.000337216
0.00031383
0.000347873
0.00057875
0.00064897
0.000695675
0.000470629
0.00100463
0.000796802
0.00107259
0.000716166
0.000560168
0.000801527
0.000682795
0.00070504
0.000799944
0.00109126
0.00112015
0.000257986
0.000240552
0.000343968
0.000352864
0.000258332
0.00021082
0.000593327
0.00067948
0.00082219
0.000957252
0.0011979
0.00132932
0.000831307
0.000549035
0.000528257
0.00037099
0.000451389
0.000949748
0.00102573
0.000580754
0.00071595
0.00123804
0.00107074
0.00177084
0.000947136
0.000951083
0.000942745
0.0010786
0.00125055
0.00128321
0.000912487
0.00100363
0.000418248
0.000384455
0.000399658
0.000571026
0.000544977
0.000347134
0.000559743
0.00109803
0.00117874
0.00124898
0.00163847
0.00196352
0.000699244
0.000543822
0.000763417
0.00072688
0.000785294
0.00137092
0.00139778
0.00154938
0.00175578
0.00194991
0.00193808
0.00184515
0.0010309
0.000835273
0.00133641
0.0015378
0.00170162
0.00180956
0.00247161
0.0024774
0.00101242
0.000777697
0.000789894
0.000809098
0.000848989
0.000785446
0.00119583
0.00149068
0.00159449
0.00120872
0.00164734
0.00267099
0.00175912
0.000724062
0.00074683
0.00100204
0.0012367
0.00168233
0.00192793
0.00216392
0.00224279
0.00278056
0.00214848
0.0026925
0.00196735
0.00167393
0.00204998
0.00210715
0.00288726
0.00305444
0.00204606
0.00388733
0.00152724
0.00105297
0.000807902
0.00113605
0.00114259
0.00113956
0.00103311
0.00191333
0.00155035
0.00154443
0.00177157
0.00214305
0.00142916
0.00101261
0.000983991
0.000962057
0.0013223
0.00151338
0.00251496
0.00265234
0.00265507
0.0041581
0.00369263
0.00499599
0.00307759
0.00150892
0.00195562
0.00322247
0.00282541
0.00435565
0.0024889
0.00306658
0.00130214
0.00109649
0.00111064
0.00144659
0.00153536
0.0015346
0.00209077
0.00234324
0.00233528
0.00209827
0.00291553
0.0037609
0.00191099
0.00121754
0.00124437
0.00120201
0.0013757
0.00183817
0.00171631
0.001928
0.00295799
0.00464145
0.00328045
0.00409543
0.00378041
0.00253247
0.0022136
0.00312828
0.00393859
0.00418221
0.00397191
0.00587801
0.00306639
0.00192403
0.00175754
0.0018377
0.00187684
0.0019614
0.00258862
0.00276247
0.00276651
0.0020724
0.00227598
0.00302515
0.00242673
0.00156121
0.00151143
0.00147527
0.00198576
0.00311171
0.00206668
0.00228735
0.0020125
0.00538453
0.0056628
0.00740776
0.00527348
0.00248289
0.00248566
0.00324742
0.00606476
0.00728615
0.00447364
0.00451675
0.00324261
0.00180992
0.00167907
0.00207653
0.00205761
0.00154939
0.00190919
0.00211392
0.00232219
0.00242721
0.00220947
0.00359688
0.00358895
0.00256724
0.00184394
0.00166971
0.00201244
0.00244163
0.00238365
0.00249859
0.00243409
0.00534215
0.00607618
0.00811023
0.00635627
0.00314798
0.00281734
0.0042569
0.00471013
0.00670809
0.0049897
0.00629309
0.00507218
0.0030485
0.00238894
0.00243658
0.00253662
0.00262078
0.00322361
0.00347839
0.00245681
0.00242072
0.00247879
0.00333511
0.00329892
0.00211889
0.00197297
0.00196129
0.00239454
0.00327233
0.00421169
0.00475158
0.00346061
0.0050108
0.00479285
0.00582659
0.00564009
0.00373824
0.00265352
0.00426796
0.0060962
0.00886275
0.00461878
0.00521031
0.00383609
0.00268478
0.00233905
0.00224736
0.00272374
0.00274556
0.00333451
0.00368459
0.00255565
0.00249809
0.00248043
0.00360205
0.0035653
0.00273431
0.00195717
0.00217809
0.00216866
0.00314268
0.00411765
0.00483313
0.00352416
0.00559882
0.0073147
0.00790861
0.0076878
0.00479804
0.00293137
0.00406493
0.00600543
0.00761283
0.00609479
0.00534008
0.00661229
0.00443072
0.00288163
0.00246053
0.00279272
0.00228484
0.00247854
0.00268461
0.00266625
0.00251931
0.00185433
0.00253365
0.00367984
0.0023549
0.00236292
0.0022317
0.00244236
0.00245356
0.00378261
0.00469639
0.00353539
0.00508235
0.0073637
0.00720643
0.00581846
0.00397738
0.00260422
0.00292435
0.00370824
0.00724264
0.00650859
0.0056279
0.00691424
0.00510152
0.00308496
0.00286222
0.00295152
0.00248863
0.00253322
0.0026616
0.00259456
0.00249024
0.00236959
0.00338666
0.00253539
0.00231609
0.00236024
0.00202092
0.00216599
0.0023513
0.00282928
0.00435669
0.00303976
0.00444295
0.00699972
0.00633668
0.00566299
0.00525381
0.00335881
0.002639
0.00317125
0.00610866
0.00610519
0.00541875
0.00594169
0.00564449
0.00310877
0.00257767
0.00277074
0.00291876
0.00254912
0.00260521
0.00262299
0.00233924
0.00228495
0.00274328
0.00350925
0.00268352
0.00196182
0.00207541
0.002234
0.00249021
0.00323121
0.00290375
0.00337594
0.00281461
0.0062907
0.00537923
0.00482353
0.00473438
0.00367296
0.00318315
0.0037892
0.00533826
0.00756986
0.00420144
0.00644797
0.00471401
0.00327693
0.00270685
0.00270529
0.0029341
0.00310212
0.00301421
0.00284328
0.00203606
0.00169276
0.00174096
0.00192779
0.002127
0.0025839
0.00269337
0.00246967
0.00218151
0.00247788
0.00331262
0.00319361
0.00324006
0.00536408
0.00417439
0.00475663
0.00598033
0.00405735
0.00298189
0.00333886
0.00433226
0.00535724
0.00378136
0.00593214
0.00433073
0.00306963
0.00274618
0.00283299
0.00284396
0.00252978
0.00243772
0.00244127
0.00221475
0.00206525
0.00153012
0.001708
0.00207167
0.00203365
0.00277672
0.00253054
0.00225076
0.00221247
0.00276515
0.00247098
0.00227428
0.00313093
0.00375689
0.00358456
0.00481089
0.00410368
0.00214756
0.00218748
0.00348427
0.00537239
0.003355
0.00518622
0.00549766
0.00343079
0.0030797
0.00272573
0.00302124
0.00262545
0.00236199
0.00233974
0.00218198
0.001953
0.00198383
0.00235463
0.00297274
0.00290717
0.00269236
0.00290068
0.00243521
0.00200827
0.00232692
0.00261527
0.00219501
0.00259951
0.00243292
0.00215688
0.0041635
0.0040416
0.00275312
0.00275597
0.00236643
0.00552073
0.00506992
0.00469982
0.00555197
0.00373389
0.00320885
0.00297942
0.00285646
0.00261486
0.00259134
0.0022476
0.00219735
0.00188626
0.00182895
0.00144206
0.00194115
0.00200798
0.00264079
0.00309264
0.00269452
0.00199418
0.00213421
0.00226255
0.00187596
0.0022607
0.00163986
0.0019422
0.00406703
0.00457092
0.00300026
0.00250042
0.00217001
0.00433799
0.00494053
0.00464131
0.0052096
0.003689
0.00312805
0.00309233
0.00283545
0.00248083
0.00243788
0.00227504
0.00190923
0.0018938
0.00167986
0.00194241
0.00250382
0.0019029
0.00269365
0.00329485
0.00250622
0.00204993
0.00179175
0.00184656
0.00199179
0.00194869
0.00204677
0.00153418
0.00299988
0.00314698
0.00218251
0.00236861
0.00216496
0.00273284
0.00262796
0.00276676
0.00405552
0.00491004
0.00394984
0.00336671
0.00288533
0.00250324
0.00243219
0.00230637
0.00177875
0.00181033
0.0016115
0.00163571
0.00163453
0.00175032
0.00202467
0.00251997
0.00311531
0.00212971
0.0015667
0.001551
0.00171866
0.0016854
0.00168239
0.00130143
0.00216118
0.00250997
0.00193354
0.00197863
0.00198003
0.00268583
0.00252493
0.00229196
0.0040046
0.00475107
0.00372957
0.00275431
0.00293734
0.00252943
0.00216111
0.00217544
0.00226152
0.00206625
0.00168545
0.00143633
0.00159543
0.00158467
0.00170347
0.002403
0.00240323
0.00224803
0.00167521
0.001718
0.00164124
0.00149894
0.00131173
0.000950953
0.00112454
0.00186672
0.00183838
0.00192303
0.00193481
0.00199777
0.00358912
0.00328605
0.00335847
0.00464718
0.00430811
0.00339519
0.00249524
0.00227953
0.00217265
0.00233243
0.00187806
0.00170261
0.00159771
0.00165879
0.00173974
0.00176226
0.00175418
0.00229921
0.002926
0.00211341
0.00143989
0.00120653
0.000974385
0.00100002
0.0011935
0.00105191
0.00118277
0.00133647
0.00165939
0.00186008
0.00180171
0.00158781
0.00200841
0.00175728
0.00275859
0.00403606
0.00486418
0.00391713
0.00251068
0.00208792
0.00209102
0.00218609
0.00211093
0.00204584
0.00191102
0.00149187
0.0014548
0.00143147
0.0015059
0.00177446
0.00250162
0.00230043
0.0014413
0.00135827
0.000931287
0.0012674
0.00115332
0.000965833
0.000833369
0.00106117
0.0015779
0.00195059
0.00175478
0.00125727
0.00181875
0.0024017
0.0022849
0.0033143
0.00437023
0.00415452
0.00263982
0.00199485
0.00199452
0.00254169
0.00199372
0.00189958
0.00168553
0.00157583
0.00125854
0.00118461
0.00120031
0.00133049
0.00195621
0.00214506
0.00159799
0.00123817
0.00121813
0.0011949
0.00110219
0.000738133
0.000683132
0.000756715
0.00134541
0.00181263
0.00172413
0.00119363
0.00140461
0.00143408
0.00189285
0.00218039
0.00423804
0.00427211
0.00325974
0.00195818
0.0020113
0.00212454
0.0019169
0.00190615
0.00178907
0.00144261
0.00113832
0.00106557
0.00103792
0.00123781
0.00154646
0.0017714
0.00149068
0.00103334
0.000874267
0.000894609
0.000945248
0.000817376
0.000637474
0.000777375
0.00149165
0.00173797
0.0016146
0.000988502
0.0012568
0.0017321
0.0015859
0.00154379
0.0027559
0.00352562
0.0030025
0.0019666
0.00187234
0.00211803
0.0019679
0.00172851
0.00165461
0.0013225
0.00108826
0.000958521
0.000929018
0.000897364
0.00125932
0.00152911
0.00143956
0.00104698
0.00109789
0.00109543
0.000924797
0.000662387
0.000577791
0.000696873
0.00114958
0.00162308
0.00148448
0.000892537
0.00134365
0.00116961
0.00127365
0.00118732
0.00140816
0.00286335
0.00298611
0.00198921
0.00228558
0.00212592
0.00206689
0.00171361
0.00154712
0.00118444
0.00105152
0.000932353
0.00085563
0.000774678
0.00103695
0.00123078
0.00128443
0.00107955
0.000902541
0.000928541
0.000857589
0.000713104
0.000556924
0.000579028
0.00133838
0.00148929
0.00123797
0.000923023
0.000948022
0.00102591
0.000929305
0.00086477
0.00101446
0.0014026
0.00234013
0.00209683
0.00237524
0.00214844
0.00234517
0.00157518
0.00138491
0.00111309
0.000971816
0.000929582
0.000891321
0.000726288
0.000814135
0.00115347
0.00125595
0.00110375
0.000921212
0.000934621
0.000910085
0.00058144
0.000541623
0.000689197
0.00118403
0.00142605
0.00133844
0.000900967
0.000802541
0.000982901
0.000943312
0.000842937
0.000709006
0.00105723
0.00145643
0.00165248
0.0022573
0.00258106
0.00234146
0.00146093
0.00127687
0.00105293
0.000876215
0.000930759
0.000762682
0.000678018
0.000698677
0.00118192
0.00117422
0.00110146
0.000935697
0.000923466
0.000881336
0.000589515
0.000527223
0.000623795
0.00107457
0.00122933
0.00118236
0.000814666
0.000728881
0.000747114
0.000736452
0.00074916
0.000578115
0.000645208
0.00130406
0.00124689
0.00207568
0.00240557
0.00199481
0.00156899
0.00120712
0.000994389
0.000888804
0.000835406
0.000712944
0.000622527
0.000689666
0.000796994
0.00120391
0.00107792
0.000934219
0.000946665
0.000826577
0.000634084
0.000498892
0.000544565
0.000991935
0.00117323
0.00115081
0.000768321
0.000678059
0.000664751
0.00068019
0.000663969
0.000541865
0.00054334
0.000595363
0.000805993
0.0019017
0.00217359
0.00190767
0.00140187
0.00120767
0.000933119
0.00059626
0.000693551
0.0006643
0.000568983
0.000544685
0.000811529
0.00109136
0.00113525
0.000915226
0.000961983
0.000838595
0.000636936
0.000473335
0.000689368
0.000865245
0.00115878
0.00108126
0.000867745
0.000652921
0.000628219
0.00064236
0.000641313
0.00059377
0.000522506
0.00060275
0.000827526
0.00146756
0.00196251
0.00180124
0.0016052
0.00135236
0.00081105
0.000549528
0.000667171
0.000632251
0.000531261
0.000456618
0.000548268
0.000828202
0.000958512
0.000832098
0.000803093
0.000788875
0.000481783
0.0004588
0.000606598
0.00104018
0.00115429
0.00104511
0.000904429
0.000681011
0.000609667
0.00061927
0.00061545
0.000588848
0.000545818
0.000485962
0.000507521
0.00141961
0.00166096
0.00170473
0.00156762
0.00120942
0.000633816
0.000424475
0.00051359
0.0005445
0.000507456
0.000382246
0.000372039
0.000527973
0.000872378
0.000959559
0.000706569
0.000699311
0.000496761
0.000381345
0.000610014
0.00100188
0.00112924
0.00106592
0.000928974
0.000691154
0.000589625
0.000588618
0.000595637
0.000587146
0.000558758
0.000486844
0.000471714
0.000928772
0.00146618
0.00158843
0.00123539
0.000878346
0.000467253
0.000395392
0.000426169
0.000485354
0.000433037
0.000368122
0.000327844
0.000381162
0.000752667
0.000748992
0.000605448
0.00058625
0.000351433
0.000398959
0.000612774
0.000996733
0.00102494
0.0010698
0.00096659
0.000626175
0.000597029
0.000608306
0.000599736
0.000587169
0.000511757
0.000409861
0.000380452
0.000581185
0.00105285
0.00154909
0.000933266
0.000583021
0.000377156
0.000379435
0.000402461
0.000424606
0.000409167
0.000333307
0.000331044
0.00033982
0.000644008
0.000666139
0.000534918
0.00042576
0.000347935
0.000419371
0.000799069
0.000929834
0.0010839
0.00102768
0.00101431
0.0007015
0.000594522
0.000606793
0.000590737
0.000563259
0.000465797
0.000379965
0.000357454
0.000462497
0.000788189
0.00109682
0.00085564
0.000444195
0.000339897
0.000397693
0.000419332
0.000366583
0.000364204
0.000346591
0.000339545
0.000343725
0.000495276
0.000565413
0.000507137
0.000382038
0.000368437
0.000417755
0.000745143
0.000910984
0.00113871
0.00118197
0.000976115
0.000721174
0.000586836
0.000594197
0.000584578
0.000563193
0.000454527
0.000376631
0.000374797
0.000395401
0.000662012
0.000739922
0.000581773
0.000394351
0.000327743
0.000417028
0.000472244
0.000404436
0.00034358
0.000362734
0.000357293
0.000369343
0.000504411
0.000608009
0.000567948
0.00043627
0.000352626
0.000388261
0.000485149
0.000738055
0.00126185
0.0012881
0.00108225
0.000737372
0.000578381
0.000583678
0.000574627
0.000493838
0.000474465
0.000463445
0.000376174
0.00036415
0.00039227
0.000410557
0.000456653
0.00039798
0.000335469
0.000429903
0.000589991
0.000440264
0.000368082
0.000347278
0.000353785
0.000378616
0.000496528
0.000524684
0.000506678
0.000525707
0.000463142
0.000379187
0.000468852
0.000782413
0.00112473
0.00122519
0.00092524
0.000669661
0.000497779
0.000510278
0.000548093
0.00052059
0.000439097
0.000427914
0.000321176
0.000322757
0.000309497
0.000322644
0.000374233
0.000383633
0.000346239
0.00041903
0.000709873
0.000546291
0.000372052
0.000317229
0.000326494
0.000373213
0.000398131
0.000375205
0.000378057
0.000461757
0.000450202
0.000368157
0.000421613
0.000902939
0.00113105
0.00112063
0.000922347
0.000853764
0.000603948
0.000531347
0.000512053
0.000461744
0.000422784
0.000358185
0.000295024
0.000299735
0.000289058
0.000265676
0.000297965
0.000344031
0.00034656
0.000434341
0.000516593
0.000468736
0.000356555
0.000323023
0.000304728
0.00031428
0.000321512
0.000295533
0.000318831
0.000366016
0.000343623
0.000331617
0.000562251
0.000776618
0.000905755
0.000935909
0.000920824
0.000680269
0.000497852
0.000515594
0.000435267
0.000385628
0.000327242
0.000303778
0.000272187
0.000309245
0.000308274
0.000274005
0.000284937
0.000337101
0.000340218
0.000325823
0.00043434
0.000483578
0.000461301
0.000372512
0.000340113
0.000321978
0.000321039
0.000288252
0.000290173
0.000301176
0.000342532
0.000349525
0.000431591
0.00067642
0.00068704
0.000674648
0.000757448
0.000720414
0.000614617
0.000436991
0.000414796
0.000376602
0.000328211
0.000276482
0.000235554
0.000266797
0.000272573
0.000219619
0.000224639
0.000277019
0.000304698
0.000292487
0.000302141
0.000300789
0.000375747
0.000414877
0.000395538
0.000357234
0.0003491
0.000319874
0.000281635
0.000273552
0.000293754
0.000303869
0.000430515
0.000550497
0.00052006
0.000432421
0.000683672
0.000716932
0.000518661
0.000393517
0.000380904
0.000316449
0.000266812
0.000257575
0.000221236
0.000234236
0.000228849
0.000198972
0.000215692
0.000244919
0.000280693
0.000279455
0.000285847
0.000289543
0.000369772
0.000415977
0.000409982
0.00039554
0.000395909
0.000298677
0.000255546
0.000252736
0.000239577
0.000237101
0.000274547
0.000340425
0.000343953
0.000286653
0.000344506
0.000478939
0.000442548
0.000391417
0.000336766
0.000272458
0.000257817
0.000232988
0.000228001
0.00022734
0.000207681
0.000197933
0.000196396
0.000227831
0.000299381
0.000294133
0.000297568
0.000337006
0.000395072
0.000427397
0.000434473
0.000429939
0.000395902
0.000264289
0.000235538
0.000219603
0.000193875
0.000187565
0.000185851
0.000192973
0.000204134
0.000203589
0.000278615
0.000422786
0.00047918
0.000447182
0.000396589
0.000289508
0.000245803
0.000231435
0.000248077
0.000244543
0.000226514
0.000223261
0.000219753
0.000259284
0.000387025
0.00039357
0.000345123
0.000358234
0.000413475
0.00042206
0.000414026
0.000382128
0.000319012
0.000233169
0.00023285
0.000220516
0.000189941
0.000178809
0.000172241
0.000165642
0.000166075
0.000169567
0.000169367
0.000243033
0.00043308
0.000421015
0.000371148
0.000322882
0.000257867
0.000239904
6.45907e-06
1.21302e-05
1.74641e-05
3.15952e-05
2.50859e-05
2.3442e-05
1.52077e-05
1.21808e-05
4.43335e-06
3.40622e-06
3.24954e-06
3.3842e-06
4.73108e-06
3.61641e-06
4.38995e-06
4.94944e-06
1.26502e-05
2.43728e-05
2.79116e-05
1.5958e-05
1.05478e-05
2.43551e-05
2.16326e-05
1.52599e-05
6.91678e-06
6.12746e-06
8.40175e-06
9.43298e-06
6.75783e-06
5.41766e-06
8.94868e-06
5.64978e-06
4.62324e-05
4.93495e-05
7.42196e-05
5.50692e-05
9.52594e-05
4.70119e-05
2.91461e-05
3.08301e-05
1.71626e-05
1.6466e-05
1.53614e-05
1.59453e-05
1.61005e-05
1.70001e-05
2.79395e-05
2.27346e-05
2.71997e-05
4.95993e-05
0.000116909
9.39604e-05
6.82331e-05
0.000103256
0.000109816
6.45489e-05
3.06851e-05
2.75223e-05
3.70203e-05
4.15436e-05
3.75313e-05
2.44542e-05
2.6286e-05
3.13351e-05
0.000123867
0.000134896
8.41142e-05
0.000153747
0.000142388
0.000132247
8.62832e-05
8.60709e-05
4.72908e-05
4.34288e-05
4.50483e-05
4.44136e-05
5.94442e-05
6.32594e-05
5.7173e-05
0.000107697
0.000144041
0.000134765
0.000232045
0.000323702
0.000204941
0.000314302
0.000201331
0.000125944
8.54805e-05
8.95976e-05
0.000101278
9.53637e-05
8.2017e-05
0.000101558
0.000100425
6.78111e-05
0.000170555
0.000170707
0.000310271
0.000659719
0.000307183
0.000276848
0.000181385
0.000180474
0.000114963
9.53041e-05
9.33283e-05
8.84878e-05
9.18563e-05
9.73308e-05
0.000128059
0.000129548
0.000154067
0.000372325
0.000479336
0.000431251
0.000273465
0.00046709
0.000427268
0.000272276
0.000177124
0.000169167
0.00022139
0.000197606
0.000215101
0.00014203
0.000146692
0.000139202
0.000295537
0.000462816
0.000521224
0.00130027
0.00110184
0.000494909
0.000632363
0.000501294
0.00017847
0.000168635
0.000161761
0.000162093
0.000168392
0.00023351
0.000200044
0.000226297
0.000264923
0.000448268
0.000794719
0.00118174
0.000690807
0.00109394
0.00100225
0.000742419
0.000318544
0.000322755
0.000388098
0.000397318
0.000380526
0.000395667
0.000365974
0.000266874
0.000636899
0.000704344
0.000779746
0.000847467
0.00175174
0.00147529
0.00103008
0.00082965
0.00029457
0.000247599
0.000255705
0.000249206
0.000342955
0.000374657
0.000367114
0.000356119
0.000407138
0.000662532
0.00121851
0.00123734
0.000764995
0.00119861
0.00178304
0.00089504
0.000522949
0.00051541
0.000618983
0.000569535
0.000480909
0.000546759
0.000584251
0.000444182
0.000880013
0.000969398
0.00106699
0.00266546
0.00253649
0.00213977
0.00154907
0.000815988
0.000561136
0.000379313
0.000377529
0.000413602
0.000557182
0.000401911
0.00053471
0.000546037
0.00100518
0.00124508
0.00169298
0.00238074
0.00166247
0.00220544
0.0026175
0.00213012
0.00072468
0.000770411
0.000833835
0.00086226
0.000898954
0.000584681
0.000863281
0.00063126
0.00112917
0.00126591
0.00151174
0.0011895
0.00167337
0.00167144
0.00118479
0.00184542
0.000676523
0.000575063
0.000534815
0.00052106
0.00069918
0.000780104
0.000775995
0.000741667
0.00076265
0.00195338
0.00259853
0.00330864
0.00148797
0.00289152
0.00316562
0.00232909
0.00119982
0.000909376
0.00114827
0.0013109
0.0012504
0.000838459
0.000843926
0.000801247
0.00136294
0.00152668
0.00174212
0.00342855
0.00403815
0.00220736
0.00162873
0.00248113
0.00126636
0.00077371
0.000763354
0.000719223
0.000698101
0.00074007
0.000898448
0.00125045
0.00149331
0.00170524
0.00290344
0.00377316
0.00187398
0.0025878
0.00414196
0.00477267
0.00173643
0.00149494
0.0014999
0.00169446
0.00129472
0.00133888
0.00106124
0.00107779
0.00156866
0.001734
0.00191489
0.00203609
0.00438145
0.00276042
0.00213944
0.00300011
0.00197686
0.00100535
0.000928898
0.000919216
0.0012684
0.00129466
0.00128628
0.00116061
0.0016635
0.00144346
0.00268046
0.00320234
0.00252788
0.00383371
0.00520195
0.00485227
0.00188652
0.00155249
0.00186264
0.00213333
0.0021127
0.00148362
0.001351
0.00132692
0.00174892
0.00185002
0.00202972
0.00299531
0.00285078
0.00325552
0.00353508
0.00354916
0.00194086
0.00115589
0.00122373
0.00112904
0.00150331
0.00155564
0.00122224
0.00171749
0.00177898
0.00227153
0.00269116
0.00410977
0.00287876
0.00416743
0.00545316
0.00789263
0.00246076
0.00240356
0.00219885
0.00266373
0.00263222
0.0019871
0.00219055
0.00159258
0.00190506
0.00195215
0.00201746
0.00222664
0.00415748
0.00487307
0.00432139
0.00381514
0.00336341
0.0016502
0.00139948
0.00137008
0.00155299
0.00183887
0.00193938
0.00159234
0.00144869
0.00163597
0.00291503
0.00347163
0.00394812
0.00416089
0.00567991
0.0089148
0.00437548
0.00313639
0.00302755
0.00304477
0.00321116
0.00232903
0.00241038
0.00188302
0.00208583
0.00202207
0.00211137
0.002441
0.00439088
0.00473496
0.00450993
0.00417131
0.00319009
0.00223331
0.00170933
0.00155893
0.00171542
0.00197502
0.00210831
0.0016814
0.00155478
0.00188892
0.00280908
0.00320815
0.00312376
0.00325456
0.00564325
0.00855191
0.00399673
0.0037903
0.0025969
0.00357013
0.00362423
0.00277042
0.00255936
0.0020293
0.00202626
0.00208445
0.00207463
0.00229555
0.00315325
0.00435536
0.00454995
0.00338429
0.00369227
0.00276489
0.00175824
0.00171572
0.00171025
0.00210374
0.00237156
0.00194835
0.00164327
0.00218977
0.00281884
0.0029063
0.00339804
0.00285418
0.00391592
0.00907425
0.00666382
0.00438912
0.00362088
0.0037831
0.00414051
0.00350164
0.00235448
0.00259784
0.00270161
0.00216959
0.00212717
0.00213939
0.00349039
0.00453263
0.00410422
0.00394506
0.00428034
0.00258064
0.0020131
0.00187067
0.00207758
0.00217719
0.00248572
0.00191089
0.00189813
0.00222
0.00259377
0.00282595
0.00290464
0.00308701
0.00505573
0.00909512
0.00777454
0.00433835
0.00448438
0.00339833
0.00470699
0.00350676
0.00279099
0.00249476
0.00225539
0.00236875
0.00236842
0.00236605
0.00335475
0.00403026
0.00417619
0.0037659
0.00442424
0.00368129
0.00231547
0.00195785
0.00206961
0.00228856
0.00252387
0.00199718
0.00185582
0.00181828
0.00227286
0.00254622
0.00273125
0.00244344
0.00582726
0.00651216
0.00813133
0.0054815
0.00486121
0.00388861
0.0046923
0.00413161
0.00288297
0.0028124
0.00247417
0.00234869
0.00249693
0.00221723
0.00263893
0.00294006
0.00379747
0.00417986
0.00391019
0.00349986
0.00232221
0.00204568
0.00204887
0.00203229
0.00249478
0.00205703
0.00172732
0.00208109
0.0023244
0.00237101
0.00271257
0.00220084
0.00502247
0.00513742
0.00832156
0.00475168
0.00455892
0.00396514
0.00465132
0.00385623
0.00366202
0.00354014
0.00328457
0.00256372
0.00237046
0.00242701
0.0025608
0.00288745
0.00336045
0.00349351
0.00368707
0.00384208
0.00299212
0.00230132
0.00220672
0.0022293
0.00213193
0.00208713
0.00171339
0.00183429
0.00199495
0.00222642
0.0026349
0.00331255
0.00381604
0.00562923
0.00804887
0.00537276
0.00388892
0.00349002
0.00443946
0.00436675
0.00326426
0.00361802
0.00309065
0.00289596
0.00257019
0.00236798
0.00220334
0.00235326
0.0039952
0.00379352
0.00333482
0.00433259
0.00343522
0.0022018
0.0020778
0.00211559
0.00212139
0.00209634
0.00182565
0.00181615
0.0016825
0.00198694
0.00224041
0.00206173
0.00401711
0.00526635
0.00778791
0.00604076
0.00368007
0.00412306
0.00417053
0.00556664
0.0042751
0.00377967
0.00297538
0.00288364
0.00271809
0.00251493
0.00236079
0.00258993
0.00302726
0.00310892
0.00358066
0.00442272
0.00379573
0.00232281
0.00208467
0.00220279
0.00218425
0.00209567
0.00178894
0.0017675
0.0012976
0.00172467
0.00244124
0.00344341
0.00372647
0.00439822
0.00578546
0.00771482
0.00469493
0.00391396
0.00416145
0.00511235
0.00478034
0.00284969
0.00250517
0.00290145
0.00290832
0.00287853
0.00225895
0.0020193
0.00242189
0.00277738
0.00320485
0.00418685
0.00403561
0.00269063
0.00210596
0.00202589
0.0022527
0.00202577
0.00167912
0.0017125
0.00160695
0.00167788
0.00214745
0.0030159
0.00371914
0.00381604
0.00448043
0.0075015
0.00403457
0.00346738
0.00364011
0.00452397
0.00454202
0.00287046
0.00229688
0.0023014
0.00303575
0.00277458
0.00229646
0.00196186
0.00188041
0.00260333
0.00283607
0.00434672
0.00385346
0.00311134
0.00251477
0.002142
0.0021809
0.00221079
0.00166688
0.00124337
0.00154183
0.00156145
0.00223761
0.00196557
0.00250752
0.00247896
0.0034397
0.00670204
0.00521114
0.00348131
0.00352661
0.00401704
0.0038452
0.00331568
0.00226743
0.0022825
0.00257906
0.00289532
0.00203607
0.00204182
0.0019532
0.0022604
0.00219393
0.00331495
0.00424947
0.00329665
0.00256031
0.00187134
0.00208653
0.00201507
0.00193757
0.00166333
0.00155594
0.00123914
0.00196268
0.00211094
0.00240157
0.00293061
0.00367283
0.00610799
0.00529073
0.00342531
0.00356492
0.00352254
0.00374298
0.00302835
0.00201829
0.00218224
0.00271979
0.00275674
0.00227084
0.00208922
0.00165833
0.00191779
0.00185197
0.00185513
0.00313959
0.00347235
0.00233496
0.00181053
0.00194166
0.00196133
0.00165097
0.0013024
0.00105253
0.000915368
0.00137255
0.00180387
0.00220051
0.00222196
0.00231451
0.00433172
0.00487263
0.0034088
0.00334015
0.00374389
0.00310303
0.00244006
0.00183752
0.0018946
0.00220837
0.00243581
0.00246234
0.00213018
0.00154974
0.00170232
0.0015784
0.00242523
0.00355324
0.00302237
0.00225657
0.00172797
0.00196329
0.00188122
0.00146825
0.00154255
0.00148273
0.00143979
0.00186904
0.0022621
0.0020381
0.00212283
0.00213641
0.00260743
0.00395418
0.00291552
0.00276916
0.00305785
0.00314166
0.00231322
0.00172074
0.00167279
0.00216856
0.00215559
0.0022589
0.00176066
0.00139381
0.00137976
0.00145669
0.00156371
0.00174364
0.00291247
0.00230458
0.00194118
0.00182269
0.00191726
0.00157469
0.00125856
0.00143497
0.00132732
0.0015613
0.00180992
0.00200303
0.00237104
0.0021623
0.00229905
0.00342849
0.00286115
0.00229307
0.00255537
0.00269868
0.00224866
0.00168076
0.00150082
0.00182953
0.00185934
0.00192944
0.00206909
0.00163713
0.00117939
0.00108136
0.00129016
0.00202046
0.00245784
0.00225265
0.00181574
0.00174387
0.00178643
0.00178811
0.00154054
0.000892478
0.0012717
0.00139736
0.00159208
0.00187988
0.00201153
0.00172515
0.0015866
0.00268742
0.00223984
0.00187235
0.00220162
0.00242141
0.00234772
0.0016853
0.00142776
0.00151833
0.00165215
0.00155457
0.00141251
0.00104274
0.00100372
0.00108307
0.00115528
0.00157936
0.0022334
0.00192623
0.00178402
0.00153874
0.00167155
0.00155822
0.00135101
0.000921463
0.000763917
0.000831829
0.00146114
0.00168514
0.00206153
0.00139847
0.00112695
0.0018788
0.00214575
0.00158955
0.00209125
0.00278282
0.00220981
0.00201326
0.00157226
0.00158945
0.00142057
0.00141591
0.00126552
0.000851794
0.000892656
0.000877633
0.000845878
0.000887919
0.0013938
0.00174039
0.00167803
0.00161237
0.00157886
0.00125402
0.00111219
0.00118365
0.00113198
0.00120682
0.00134853
0.00162944
0.00159735
0.00146572
0.000867958
0.00136511
0.00165024
0.00135261
0.00117623
0.00197756
0.00217839
0.0019196
0.00131986
0.00125937
0.0013434
0.00135151
0.00118499
0.000831757
0.00088541
0.00087727
0.000787231
0.00130053
0.00163909
0.00163715
0.00157413
0.00160996
0.00148886
0.00145207
0.00125571
0.000739207
0.000709158
0.00109376
0.00121777
0.00138557
0.00128676
0.000789426
0.000636336
0.000977421
0.00126586
0.00113027
0.000847186
0.00147051
0.00238508
0.00195121
0.00168609
0.00156317
0.00151922
0.00144666
0.00119996
0.000925803
0.000871294
0.000877314
0.000764752
0.000883132
0.00144716
0.00143645
0.00146726
0.00150082
0.00139264
0.00125855
0.00113666
0.00102597
0.00068785
0.000773287
0.00119795
0.00126251
0.00104503
0.00071192
0.000524015
0.000501321
0.000954138
0.000899014
0.000664393
0.0013189
0.00184041
0.00148844
0.00145597
0.00131866
0.00136916
0.00134378
0.000922289
0.000783059
0.000751019
0.000849568
0.000692352
0.000756541
0.00138761
0.00139635
0.00137057
0.0014879
0.00138736
0.00108516
0.000959054
0.000995275
0.00103843
0.00108398
0.0011999
0.00120078
0.000949486
0.000604134
0.000453577
0.000444907
0.000667818
0.00072797
0.000583958
0.000681804
0.0013703
0.00123192
0.00136554
0.00135153
0.00137443
0.00148418
0.00109542
0.000772168
0.000768009
0.000853479
0.000654431
0.00066439
0.00119749
0.00126075
0.00127634
0.00145075
0.00106899
0.000955287
0.000775766
0.000902002
0.000714541
0.000919041
0.00121087
0.00116281
0.000884127