/*--------------------------------*- C++ -*----------------------------------*\
| =========                 |                                                 |
| \\      /  F ield         | OpenFOAM: The Open Source CFD Toolbox           |
|  \\    /   O peration     | Version:  v1706                                 |
|   \\  /    A nd           | Web:      www.OpenFOAM.com                      |
|    \\/     M anipulation  |                                                 |
\*---------------------------------------------------------------------------*/
FoamFile
{
    version     2.0;
    format      ascii;
    class       volScalarField;
    location    "0";
    object      nut;
}
// * * * * * * * * * * * * * * * * * * * * * * * * * * * * * * * * * * * * * //

dimensions      [0 2 -1 0 0 0 0];


internalField   nonuniform List<scalar> 
98304
(
4.4583e-09
4.72882e-09
5.94266e-09
3.58299e-09
3.96567e-09
8.20641e-09
5.29825e-09
3.81526e-09
3.7692e-09
2.16691e-09
3.42152e-09
2.97022e-09
2.64424e-09
3.00198e-09
3.80759e-09
9.43265e-09
5.49659e-09
9.40614e-09
4.90112e-09
3.48994e-09
6.80278e-09
5.95063e-09
6.30577e-09
7.19932e-09
1.04152e-08
1.02713e-08
3.8787e-09
3.83419e-09
2.32509e-09
3.95426e-09
3.13656e-09
4.29204e-09
2.5923e-08
3.21976e-08
3.67131e-08
2.55675e-08
2.94705e-08
2.55245e-08
3.24281e-08
2.59432e-08
2.34053e-08
2.21023e-08
2.29336e-08
2.19506e-08
2.09542e-08
4.36868e-08
6.45091e-08
4.2045e-08
3.76144e-08
5.79155e-08
3.24566e-08
3.30752e-08
3.71185e-08
3.74975e-08
4.02667e-08
4.10173e-08
3.21051e-08
6.18213e-08
1.62363e-08
1.56954e-08
1.7026e-08
2.50322e-08
2.15501e-08
1.46883e-08
6.50049e-08
1.27878e-07
1.37764e-07
1.07186e-07
1.24051e-07
8.98321e-08
1.2991e-07
1.03549e-07
9.34643e-08
8.79443e-08
9.68223e-08
1.51031e-07
1.52236e-07
1.73317e-07
2.03923e-07
1.85148e-07
1.66644e-07
1.90701e-07
1.68499e-07
1.37895e-07
1.96517e-07
1.59503e-07
1.62801e-07
1.86207e-07
2.50673e-07
2.47199e-07
6.93303e-08
6.67033e-08
7.14177e-08
1.01904e-07
8.92834e-08
6.17813e-08
1.94354e-07
2.4256e-07
3.89665e-07
3.07882e-07
3.68884e-07
3.25716e-07
3.72358e-07
1.8191e-07
1.89044e-07
1.95877e-07
2.65284e-07
2.6906e-07
2.56504e-07
4.89708e-07
5.72351e-07
5.32058e-07
4.76465e-07
5.20245e-07
3.95074e-07
2.83808e-07
4.74386e-07
5.3048e-07
4.93094e-07
5.29485e-07
3.97425e-07
3.37401e-07
2.26423e-07
1.92729e-07
2.0527e-07
3.07644e-07
2.58735e-07
1.78498e-07
4.52445e-07
8.32983e-07
8.96337e-07
7.36854e-07
8.29531e-07
1.31827e-06
8.77066e-07
6.2792e-07
6.14661e-07
5.78476e-07
6.28686e-07
9.66681e-07
1.06822e-06
1.13179e-06
7.86906e-07
1.55376e-06
1.27314e-06
1.64794e-06
1.14852e-06
9.24666e-07
1.26267e-06
1.09223e-06
1.12748e-06
1.27048e-06
1.66243e-06
1.70439e-06
4.78706e-07
4.52693e-07
6.23825e-07
6.34785e-07
4.8171e-07
4.05409e-07
1.36504e-06
1.52847e-06
1.80111e-06
2.04165e-06
2.46634e-06
2.7282e-06
1.82062e-06
1.27456e-06
1.23718e-06
9.07076e-07
1.06951e-06
2.04029e-06
2.17952e-06
1.30736e-06
1.55638e-06
2.52594e-06
2.25112e-06
3.50993e-06
2.03212e-06
1.99864e-06
1.99088e-06
2.23892e-06
2.57484e-06
2.64343e-06
1.93897e-06
2.09862e-06
9.94384e-07
9.28654e-07
9.62469e-07
1.30773e-06
1.26336e-06
8.51378e-07
1.7067e-06
3.09502e-06
3.28546e-06
3.43596e-06
4.32352e-06
5.13032e-06
2.06487e-06
1.65196e-06
2.25974e-06
2.16999e-06
2.31286e-06
3.74958e-06
3.80517e-06
4.1539e-06
4.59354e-06
5.08813e-06
5.08122e-06
4.78634e-06
2.90176e-06
2.422e-06
3.60358e-06
4.13358e-06
4.52052e-06
4.75894e-06
6.26134e-06
6.30235e-06
2.88334e-06
2.29792e-06
2.32609e-06
2.35119e-06
2.48018e-06
2.32177e-06
4.3815e-06
5.28791e-06
5.5861e-06
4.36656e-06
5.70486e-06
8.83368e-06
6.12114e-06
2.77569e-06
2.86841e-06
3.74084e-06
4.48091e-06
5.84556e-06
6.62154e-06
7.34254e-06
7.48893e-06
9.17993e-06
7.23207e-06
8.84248e-06
6.6871e-06
5.75248e-06
6.85999e-06
7.09833e-06
9.50016e-06
1.00176e-05
6.89791e-06
1.23759e-05
5.41088e-06
3.90138e-06
3.06708e-06
4.15948e-06
4.20909e-06
4.2033e-06
4.88152e-06
8.50719e-06
7.01592e-06
6.97951e-06
7.87604e-06
9.32561e-06
6.53782e-06
4.76653e-06
4.69463e-06
4.60276e-06
6.09497e-06
6.86838e-06
1.08517e-05
1.13696e-05
1.12779e-05
1.7057e-05
1.53809e-05
2.02218e-05
1.31124e-05
6.88793e-06
8.5429e-06
1.35711e-05
1.20548e-05
1.78955e-05
1.07057e-05
1.28731e-05
5.97237e-06
5.14722e-06
5.20546e-06
6.65505e-06
7.02051e-06
7.03667e-06
1.17996e-05
1.30203e-05
1.29313e-05
1.16536e-05
1.55259e-05
1.97591e-05
1.08313e-05
7.16676e-06
7.33576e-06
7.12505e-06
8.01918e-06
1.042e-05
9.73453e-06
1.07949e-05
1.59223e-05
2.42554e-05
1.75378e-05
2.13777e-05
2.00524e-05
1.38826e-05
1.21992e-05
1.66484e-05
2.06676e-05
2.2036e-05
2.08966e-05
2.99538e-05
1.66962e-05
1.09605e-05
1.00566e-05
1.04037e-05
1.06473e-05
1.11489e-05
1.80933e-05
1.91097e-05
1.91334e-05
1.46739e-05
1.59221e-05
2.06681e-05
1.70013e-05
1.13119e-05
1.10441e-05
1.07995e-05
1.41537e-05
2.116e-05
1.45627e-05
1.59244e-05
1.42005e-05
3.51553e-05
3.68101e-05
4.6846e-05
3.4714e-05
1.74919e-05
1.70833e-05
2.17502e-05
3.90084e-05
4.6356e-05
2.9574e-05
2.97607e-05
2.20974e-05
1.29537e-05
1.21303e-05
1.4638e-05
1.46455e-05
1.12581e-05
1.69874e-05
1.86635e-05
2.03039e-05
2.11391e-05
1.9232e-05
2.97304e-05
3.01624e-05
2.22694e-05
1.64818e-05
1.50881e-05
1.77933e-05
2.12707e-05
2.07823e-05
2.16724e-05
2.10534e-05
4.30364e-05
4.94365e-05
6.37037e-05
5.14466e-05
2.72453e-05
2.40576e-05
3.54043e-05
3.88932e-05
5.38345e-05
4.10747e-05
4.98709e-05
4.18765e-05
2.63816e-05
2.09593e-05
2.13525e-05
2.20605e-05
2.274e-05
3.40067e-05
3.65761e-05
2.65292e-05
2.62172e-05
2.67243e-05
3.51187e-05
3.4919e-05
2.32889e-05
2.17257e-05
2.17184e-05
2.5977e-05
3.42656e-05
4.32635e-05
4.84467e-05
3.63076e-05
5.01605e-05
4.87285e-05
5.80939e-05
5.65407e-05
3.91838e-05
2.8505e-05
4.38938e-05
6.09227e-05
8.51492e-05
4.73753e-05
5.26948e-05
3.99955e-05
2.88555e-05
2.54765e-05
2.44922e-05
2.92863e-05
2.93423e-05
4.29832e-05
4.7223e-05
3.37763e-05
3.31375e-05
3.28742e-05
4.63139e-05
4.59622e-05
3.58572e-05
2.64601e-05
2.93771e-05
2.90383e-05
4.05869e-05
5.17849e-05
6.01838e-05
4.53289e-05
6.84072e-05
8.78581e-05
9.33266e-05
9.16666e-05
6.06615e-05
3.84496e-05
5.13594e-05
7.3371e-05
9.08766e-05
7.4771e-05
6.55994e-05
8.01704e-05
5.62951e-05
3.79066e-05
3.26399e-05
3.66343e-05
3.0693e-05
4.00318e-05
4.3093e-05
4.28292e-05
4.06485e-05
3.06868e-05
4.01282e-05
5.73457e-05
3.83516e-05
3.83946e-05
3.66176e-05
3.94585e-05
3.95623e-05
5.8101e-05
7.09157e-05
5.52144e-05
7.55412e-05
0.000105974
0.000103453
8.58084e-05
6.17356e-05
4.1997e-05
4.6203e-05
5.71531e-05
0.000104527
9.5509e-05
8.27453e-05
0.000100529
7.71311e-05
4.90566e-05
4.57568e-05
4.70624e-05
4.04672e-05
4.92794e-05
5.14595e-05
5.03432e-05
4.85059e-05
4.63872e-05
6.35734e-05
4.86245e-05
4.53458e-05
4.63249e-05
4.01253e-05
4.29821e-05
4.59613e-05
5.43348e-05
7.93419e-05
5.78638e-05
8.01382e-05
0.00011996
0.000109796
0.000100219
9.48606e-05
6.375e-05
5.08009e-05
5.97623e-05
0.000105298
0.000107811
9.68707e-05
0.000105419
0.000100387
5.9351e-05
5.00657e-05
5.3333e-05
5.62169e-05
5.91981e-05
6.02582e-05
6.07115e-05
5.48102e-05
5.36481e-05
6.25289e-05
7.7956e-05
6.22026e-05
4.69329e-05
4.91605e-05
5.25315e-05
5.77864e-05
7.20617e-05
6.62561e-05
7.56902e-05
6.41731e-05
0.000128112
0.000112831
0.000102273
0.000101698
8.17671e-05
7.17073e-05
8.32675e-05
0.000111556
0.000151581
9.13416e-05
0.000132235
0.000101642
7.39769e-05
6.23593e-05
6.23373e-05
6.71746e-05
8.25254e-05
8.05081e-05
7.65581e-05
5.73583e-05
4.87335e-05
4.96606e-05
5.4047e-05
5.94639e-05
7.07929e-05
7.3254e-05
6.82763e-05
6.1124e-05
6.78264e-05
8.67402e-05
8.46786e-05
8.4864e-05
0.000129902
0.00010563
0.000117409
0.00014437
0.000104325
7.97962e-05
8.76619e-05
0.000108692
0.000131232
9.74944e-05
0.000142275
0.000110277
8.20962e-05
7.45041e-05
7.6433e-05
7.69626e-05
8.10979e-05
7.85051e-05
7.85735e-05
7.2319e-05
6.7853e-05
5.24631e-05
5.7296e-05
6.79077e-05
6.72459e-05
8.7582e-05
8.14482e-05
7.36572e-05
7.21619e-05
8.65111e-05
7.95921e-05
7.40153e-05
9.57536e-05
0.000112098
0.000107032
0.000137406
0.000120811
7.02932e-05
7.12835e-05
0.000104887
0.000150195
0.000102061
0.000145241
0.000153918
0.000104939
9.58484e-05
8.61699e-05
9.43012e-05
9.65316e-05
8.8229e-05
8.75023e-05
8.25583e-05
7.50998e-05
7.59629e-05
8.69712e-05
0.000105993
0.000104644
9.82017e-05
0.000104456
9.0851e-05
7.68136e-05
8.69807e-05
9.59882e-05
8.30292e-05
9.48309e-05
8.93146e-05
8.027e-05
0.000137526
0.000135368
9.98717e-05
9.96013e-05
8.82196e-05
0.000172361
0.000162104
0.000152346
0.000174908
0.000128367
0.00011355
0.000106966
0.000103332
0.000108983
0.000108152
9.65603e-05
9.46215e-05
8.36491e-05
8.1429e-05
6.7002e-05
8.47753e-05
8.77743e-05
0.000109688
0.000124217
0.000111793
8.76114e-05
9.24013e-05
9.64717e-05
8.29863e-05
9.63827e-05
7.38008e-05
8.49129e-05
0.00015167
0.000167381
0.000121041
0.000104877
9.38758e-05
0.000158983
0.000176622
0.000168533
0.000184833
0.000142994
0.000125747
0.000124526
0.000116208
0.000117335
0.000115649
0.00010975
9.56289e-05
9.48758e-05
8.61787e-05
9.62784e-05
0.000117126
9.47758e-05
0.000124556
0.000145061
0.000118119
0.000101222
9.04319e-05
9.25091e-05
9.86446e-05
9.68216e-05
0.000100103
7.97088e-05
0.000133135
0.000138925
0.000105694
0.000112958
0.000105292
0.000125161
0.000121359
0.000125418
0.000166554
0.000194136
0.000166096
0.000147472
0.000131684
0.00013047
0.000127663
0.000122808
0.000100985
0.000102306
9.3591e-05
9.4651e-05
9.42877e-05
9.91059e-05
0.000111057
0.000130814
0.00015243
0.000115703
9.14753e-05
9.01506e-05
9.79846e-05
9.6613e-05
9.61466e-05
7.88436e-05
0.000114278
0.000129241
0.000107453
0.000109423
0.000109422
0.000135467
0.000129589
0.000120503
0.000180364
0.000204224
0.000172881
0.000139629
0.000146396
0.000142878
0.000127894
0.000128502
0.0001316
0.000123416
0.000106811
9.50155e-05
0.000102138
0.000101608
0.00010723
0.000137525
0.000137658
0.000131359
0.000106309
0.00010797
0.000104096
9.75689e-05
8.84753e-05
6.9109e-05
7.80333e-05
0.000113682
0.000113669
0.000117578
0.000118191
0.000120051
0.000179053
0.000168413
0.000171178
0.000213443
0.000203797
0.000173809
0.000141228
0.000142497
0.000138124
0.000144792
0.000125041
0.000116948
0.000111932
0.00011478
0.000118153
0.000119132
0.000118737
0.000142732
0.00016766
0.00013537
0.000103886
9.11723e-05
7.75421e-05
7.91107e-05
9.05127e-05
8.25047e-05
8.89116e-05
9.71774e-05
0.000114786
0.000124293
0.000121492
0.000110803
0.000130004
0.00011831
0.000160084
0.000204313
0.000229113
0.000200761
0.000151597
0.000142685
0.000142846
0.00014693
0.000143775
0.000140778
0.000134554
0.000114539
0.000112298
0.000110977
0.000114717
0.000127652
0.000159372
0.000151757
0.000111854
0.000106929
8.20104e-05
0.000102016
9.59658e-05
8.45967e-05
7.60419e-05
8.96932e-05
0.000118469
0.000136641
0.000127432
0.00010192
0.000129714
0.000154211
0.000149833
0.000187645
0.000222503
0.00021651
0.000164563
0.000145132
0.0001451
0.000167719
0.000145236
0.000141035
0.000130976
0.00012546
0.000108736
0.000104349
0.000105217
0.000112202
0.000142423
0.000151773
0.000126601
0.000107137
0.000105865
0.000104691
9.95913e-05
7.57727e-05
7.1704e-05
7.69678e-05
0.000113363
0.000137108
0.000132762
0.0001046
0.000116646
0.000117463
0.00013972
0.000151743
0.000223016
0.00022464
0.000192634
0.000148398
0.000150568
0.000155533
0.000146852
0.000146445
0.000141092
0.000124182
0.000107443
0.000103075
0.000101382
0.000112111
0.000127984
0.000140263
0.000126485
0.000100889
9.05159e-05
9.18938e-05
9.54142e-05
8.67789e-05
7.34961e-05
8.38242e-05
0.000126644
0.00013878
0.000132658
9.8089e-05
0.00011411
0.000137802
0.000130541
0.000128538
0.000177968
0.000205186
0.000188236
0.000152162
0.000148081
0.000158381
0.000152324
0.000142011
0.000138523
0.00012196
0.000108849
0.000100838
9.8924e-05
9.6772e-05
0.000117429
0.000132273
0.000128016
0.000106134
0.000109031
0.000109047
9.8624e-05
7.99521e-05
7.32936e-05
8.25653e-05
0.0001119
0.000137132
0.000130194
9.64576e-05
0.00012217
0.000112989
0.000118812
0.000114157
0.000124831
0.000183353
0.000190556
0.000155319
0.000167002
0.000160581
0.000158534
0.000143664
0.000135973
0.000117451
0.00010985
0.000102539
9.75433e-05
9.20759e-05
0.000108542
0.000119572
0.000122839
0.000111312
0.000100532
0.000102284
9.77138e-05
8.74892e-05
7.53477e-05
7.71621e-05
0.000125592
0.000133279
0.000120151
0.000101835
0.000103395
0.000107955
0.000101959
9.81608e-05
0.000106371
0.000126985
0.000168187
0.000160685
0.000171345
0.000162485
0.000170263
0.000138767
0.000129745
0.000115477
0.00010728
0.000104698
0.000102289
9.12759e-05
9.71225e-05
0.000117539
0.000123286
0.000114923
0.000104166
0.000105047
0.000103537
8.02751e-05
7.70163e-05
8.82805e-05
0.000119007
0.00013181
0.000127439
0.000102841
9.64418e-05
0.000107594
0.00010548
9.91432e-05
8.97382e-05
0.000110483
0.00013053
0.000141995
0.000167453
0.000179171
0.000170612
0.000134328
0.000125408
0.000113365
0.000102717
0.000106342
9.54934e-05
8.96774e-05
9.10983e-05
0.000120428
0.000120115
0.000116141
0.000106583
0.000105907
0.000103304
8.29013e-05
7.79795e-05
8.55359e-05
0.000114374
0.000123008
0.000120518
9.8839e-05
9.32173e-05
9.44945e-05
9.37523e-05
9.46172e-05
8.21074e-05
8.70403e-05
0.000123419
0.000123084
0.000160743
0.000173157
0.000157538
0.000139752
0.000122378
0.000110851
0.000104314
0.000101012
9.32167e-05
8.68362e-05
9.13972e-05
9.84056e-05
0.00012222
0.000115545
0.000107348
0.000108087
0.000100755
8.75693e-05
7.71075e-05
8.08066e-05
0.000110531
0.00012065
0.000119474
9.69487e-05
9.08599e-05
8.99321e-05
9.10227e-05
8.98566e-05
8.06479e-05
8.07615e-05
8.4715e-05
9.91325e-05
0.000153954
0.000164692
0.000154167
0.00013222
0.00012269
0.000107325
8.51979e-05
9.20791e-05
9.05221e-05
8.357e-05
8.16501e-05
9.93618e-05
0.00011636
0.000118851
0.000106621
0.000109358
0.000101911
8.83892e-05
7.58938e-05
9.20524e-05
0.000103428
0.000120206
0.000116034
0.000103768
8.97145e-05
8.79943e-05
8.90193e-05
8.89336e-05
8.54477e-05
7.99727e-05
8.56732e-05
0.000100512
0.000134596
0.00015646
0.000149985
0.000141586
0.000129782
9.99525e-05
8.18514e-05
9.07445e-05
8.85683e-05
8.1103e-05
7.49689e-05
8.18526e-05
0.000100607
0.000109328
0.00010162
9.97282e-05
9.89951e-05
7.69377e-05
7.51065e-05
8.63394e-05
0.000113766
0.000120067
0.00011418
0.00010621
9.20209e-05
8.70447e-05
8.77366e-05
8.74448e-05
8.55108e-05
8.22595e-05
7.75102e-05
7.93201e-05
0.000132044
0.000143976
0.000145951
0.000139858
0.000121957
8.81722e-05
7.2516e-05
7.97132e-05
8.23245e-05
7.94578e-05
6.87962e-05
6.78408e-05
8.01901e-05
0.000104047
0.000109411
9.33229e-05
9.29116e-05
7.82165e-05
6.8748e-05
8.67637e-05
0.000111705
0.000118787
0.000115389
0.00010769
9.28178e-05
8.57457e-05
8.56709e-05
8.61842e-05
8.55673e-05
8.34496e-05
7.77801e-05
7.65537e-05
0.000105691
0.000135198
0.000140769
0.000122849
0.000103103
7.60037e-05
7.02007e-05
7.28408e-05
7.77977e-05
7.34305e-05
6.76753e-05
6.38608e-05
6.87099e-05
9.68468e-05
9.65222e-05
8.63244e-05
8.48602e-05
6.61049e-05
7.03363e-05
8.72049e-05
0.0001115
0.000113013
0.000115582
0.000109882
8.83939e-05
8.63505e-05
8.7164e-05
8.65533e-05
8.5637e-05
7.98923e-05
7.14609e-05
6.88649e-05
8.42488e-05
0.000113844
0.000139129
0.000106478
8.45201e-05
6.85658e-05
6.88039e-05
7.08696e-05
7.27764e-05
7.14137e-05
6.44952e-05
6.42539e-05
6.50877e-05
8.95551e-05
9.10042e-05
8.12848e-05
7.27078e-05
6.58857e-05
7.19113e-05
9.98383e-05
0.000107668
0.000116166
0.000113223
0.000112546
9.34566e-05
8.61849e-05
8.70708e-05
8.59147e-05
8.38909e-05
7.62111e-05
6.88694e-05
6.68237e-05
7.55585e-05
9.82798e-05
0.00011551
0.000102011
7.42266e-05
6.51451e-05
7.03949e-05
7.23024e-05
6.76462e-05
6.74254e-05
6.58056e-05
6.51158e-05
6.55132e-05
7.85226e-05
8.39358e-05
7.94277e-05
6.90183e-05
6.77329e-05
7.18793e-05
9.59642e-05
0.000106396
0.00011868
0.000121334
0.000110291
9.4644e-05
8.56297e-05
8.61638e-05
8.54637e-05
8.38909e-05
7.53077e-05
6.85889e-05
6.84012e-05
7.02105e-05
8.88962e-05
9.40933e-05
8.49115e-05
7.01071e-05
6.39771e-05
7.20032e-05
7.66882e-05
7.09453e-05
6.55245e-05
6.73059e-05
6.68007e-05
6.7888e-05
7.9325e-05
8.71112e-05
8.41381e-05
7.36965e-05
6.62271e-05
6.95627e-05
7.71377e-05
9.49077e-05
0.000125371
0.000126825
0.000116222
9.56987e-05
8.49957e-05
8.54082e-05
8.47318e-05
7.85443e-05
7.69928e-05
7.60771e-05
6.85105e-05
6.74259e-05
6.96328e-05
7.12454e-05
7.54057e-05
7.05057e-05
6.47322e-05
7.29887e-05
8.56822e-05
7.39939e-05
6.7767e-05
6.58739e-05
6.64817e-05
6.87635e-05
7.8599e-05
8.06762e-05
7.94717e-05
8.09863e-05
7.59494e-05
6.8768e-05
7.60357e-05
9.74886e-05
0.000118287
0.000123701
0.000107498
9.11144e-05
7.87483e-05
7.97116e-05
8.26507e-05
8.0554e-05
7.39485e-05
7.30069e-05
6.36201e-05
6.38265e-05
6.2445e-05
6.37363e-05
6.85674e-05
6.95459e-05
6.60975e-05
7.23218e-05
9.44491e-05
8.27855e-05
6.83856e-05
6.32596e-05
6.42061e-05
6.86138e-05
7.05945e-05
6.84636e-05
6.88108e-05
7.61012e-05
7.53112e-05
6.816e-05
7.27692e-05
0.000106493
0.000119278
0.000118767
0.00010792
0.000103858
8.71387e-05
8.18698e-05
8.03911e-05
7.63467e-05
7.30373e-05
6.71602e-05
6.29218e-05
6.34125e-05
6.22488e-05
5.96677e-05
6.31268e-05
6.79573e-05
6.82284e-05
7.52481e-05
8.17649e-05
7.87292e-05
6.91143e-05
6.58511e-05
6.3979e-05
6.49371e-05
6.56437e-05
6.29005e-05
6.52205e-05
6.99351e-05
6.78712e-05
6.66939e-05
8.66001e-05
0.000101987
0.000110002
0.000111535
0.000111089
9.51554e-05
8.15472e-05
8.31136e-05
7.638e-05
7.18451e-05
6.61841e-05
6.38159e-05
6.29157e-05
6.7044e-05
6.68569e-05
6.30653e-05
6.42906e-05
7.00262e-05
7.03841e-05
6.88504e-05
7.75837e-05
8.24375e-05
8.18033e-05
7.34736e-05
7.03913e-05
6.85265e-05
6.84258e-05
6.48265e-05
6.50348e-05
6.61956e-05
7.05132e-05
7.13274e-05
7.89397e-05
9.89225e-05
9.95488e-05
9.82213e-05
0.000103869
0.000101635
9.43142e-05
7.9713e-05
7.77124e-05
7.40509e-05
6.90446e-05
6.34068e-05
6.10075e-05
6.48372e-05
6.55182e-05
5.89176e-05
5.95741e-05
6.60838e-05
6.94124e-05
6.80499e-05
6.88834e-05
6.90085e-05
7.67114e-05
8.10356e-05
7.91555e-05
7.52455e-05
7.43829e-05
7.11887e-05
6.67733e-05
6.57877e-05
6.80463e-05
6.92491e-05
8.19483e-05
9.29008e-05
9.01839e-05
8.20913e-05
0.000102859
0.00010608
9.0397e-05
7.8911e-05
7.76203e-05
7.06531e-05
6.49121e-05
6.3757e-05
6.16976e-05
6.34789e-05
6.27288e-05
5.85124e-05
6.08373e-05
6.48015e-05
6.94906e-05
6.93357e-05
7.01369e-05
7.0578e-05
7.9794e-05
8.46144e-05
8.40168e-05
8.25438e-05
8.25779e-05
7.15831e-05
6.62996e-05
6.59001e-05
6.40862e-05
6.3579e-05
6.80026e-05
7.56005e-05
7.60836e-05
6.97606e-05
7.5954e-05
9.03697e-05
8.72524e-05
8.20836e-05
7.6087e-05
6.84102e-05
6.65326e-05
6.32868e-05
6.53242e-05
6.52048e-05
6.23254e-05
6.08553e-05
6.06233e-05
6.52164e-05
7.48146e-05
7.40658e-05
7.45732e-05
7.93552e-05
8.59543e-05
8.94332e-05
9.01531e-05
8.96531e-05
8.59707e-05
7.01471e-05
6.63052e-05
6.40733e-05
6.01219e-05
5.90916e-05
5.87964e-05
5.95966e-05
6.12194e-05
6.15001e-05
7.08377e-05
8.78312e-05
9.46312e-05
9.14632e-05
8.61353e-05
7.3531e-05
6.78239e-05
6.58091e-05
7.05793e-05
7.00799e-05
6.74522e-05
6.69634e-05
6.64513e-05
7.20862e-05
8.81973e-05
8.89e-05
8.31852e-05
8.48211e-05
9.12248e-05
9.21079e-05
9.11765e-05
8.73854e-05
7.97131e-05
6.85235e-05
6.84757e-05
6.66036e-05
6.18521e-05
5.99655e-05
5.8868e-05
5.77565e-05
5.7823e-05
5.84083e-05
5.83648e-05
6.93352e-05
9.3276e-05
9.20304e-05
8.63922e-05
8.05684e-05
7.20231e-05
6.94388e-05
2.7429e-09
4.72469e-09
6.30828e-09
1.03215e-08
8.53703e-09
8.27093e-09
5.77391e-09
4.8408e-09
1.97554e-09
1.53149e-09
1.49065e-09
1.54414e-09
2.07518e-09
1.63415e-09
1.90985e-09
2.06946e-09
4.84986e-09
8.50829e-09
9.42024e-09
5.7107e-09
4.04903e-09
8.36153e-09
7.5693e-09
5.72644e-09
2.89184e-09
2.59217e-09
3.39763e-09
3.78833e-09
2.83616e-09
2.29295e-09
3.685e-09
2.44835e-09
2.89916e-08
3.05524e-08
4.21225e-08
3.09552e-08
5.25995e-08
2.75097e-08
1.85426e-08
1.98372e-08
1.20715e-08
1.15221e-08
1.1004e-08
1.13521e-08
1.15143e-08
1.2015e-08
1.81867e-08
1.52187e-08
1.7289e-08
2.92422e-08
6.24225e-08
5.20342e-08
3.95941e-08
5.60224e-08
5.98101e-08
3.83823e-08
1.99268e-08
1.8304e-08
2.35772e-08
2.59939e-08
2.35709e-08
1.59318e-08
1.78146e-08
2.11095e-08
1.16234e-07
1.24525e-07
8.05645e-08
1.32123e-07
1.26258e-07
1.17839e-07
8.20631e-08
8.36788e-08
5.14966e-08
4.80421e-08
4.90558e-08
4.79717e-08
6.16132e-08
6.42334e-08
5.91426e-08
1.00913e-07
1.30616e-07
1.20896e-07
1.9218e-07
2.62031e-07
1.75708e-07
2.5305e-07
1.71833e-07
1.16086e-07
8.38725e-08
8.84129e-08
9.72511e-08
9.29328e-08
8.16552e-08
9.8031e-08
9.7964e-08
6.97101e-08
2.34602e-07
2.34073e-07
3.89266e-07
7.23034e-07
3.78623e-07
3.46346e-07
2.41979e-07
2.44894e-07
1.70846e-07
1.4225e-07
1.39817e-07
1.34802e-07
1.39523e-07
1.4619e-07
1.81527e-07
1.85227e-07
2.11603e-07
4.51308e-07
5.56907e-07
5.08944e-07
3.48913e-07
5.45036e-07
5.09165e-07
3.48897e-07
2.4479e-07
2.32731e-07
2.9603e-07
2.68416e-07
2.84898e-07
1.98885e-07
2.08589e-07
1.99763e-07
5.41087e-07
7.94736e-07
8.74737e-07
1.88333e-06
1.64641e-06
8.24552e-07
1.03959e-06
8.58447e-07
3.57076e-07
3.33772e-07
3.26409e-07
3.2462e-07
3.36141e-07
4.39613e-07
3.87302e-07
4.30125e-07
4.86181e-07
7.60811e-07
1.24887e-06
1.76963e-06
1.1186e-06
1.64911e-06
1.54098e-06
1.20036e-06
5.82136e-07
5.87548e-07
6.88085e-07
7.01405e-07
6.69293e-07
6.9898e-07
6.5622e-07
4.99346e-07
1.43815e-06
1.56623e-06
1.70226e-06
1.7858e-06
3.39682e-06
2.95537e-06
2.17821e-06
1.81885e-06
7.50962e-07
6.45132e-07
6.61375e-07
6.44015e-07
8.44717e-07
9.05022e-07
8.85271e-07
8.70534e-07
9.67148e-07
1.46624e-06
2.49207e-06
2.51671e-06
1.67283e-06
2.44193e-06
3.49184e-06
1.92577e-06
1.22332e-06
1.20384e-06
1.41113e-06
1.31414e-06
1.13633e-06
1.26156e-06
1.34477e-06
1.06231e-06
2.53193e-06
2.75358e-06
2.98313e-06
6.54842e-06
6.3069e-06
5.47829e-06
4.1551e-06
2.35823e-06
1.74057e-06
1.23775e-06
1.21803e-06
1.31971e-06
1.7008e-06
1.28695e-06
1.63129e-06
1.66515e-06
2.81796e-06
3.38987e-06
4.44543e-06
6.03868e-06
4.42899e-06
5.63914e-06
6.60603e-06
5.54789e-06
2.15102e-06
2.26664e-06
2.42292e-06
2.50712e-06
2.58056e-06
1.76984e-06
2.50848e-06
1.91064e-06
4.10569e-06
4.53966e-06
5.27439e-06
4.25175e-06
5.7866e-06
5.78064e-06
4.24768e-06
6.38358e-06
2.63851e-06
2.2689e-06
2.13868e-06
2.09569e-06
2.7047e-06
2.96416e-06
2.94305e-06
2.83365e-06
2.8996e-06
6.56175e-06
8.49123e-06
1.05381e-05
5.2156e-06
9.43272e-06
1.02376e-05
7.83996e-06
4.38714e-06
3.41494e-06
4.18331e-06
4.71654e-06
4.51238e-06
3.15882e-06
3.1827e-06
3.05558e-06
6.23551e-06
6.89586e-06
7.72773e-06
1.39687e-05
1.63216e-05
9.60766e-06
7.29513e-06
1.07161e-05
5.93948e-06
3.78805e-06
3.7308e-06
3.55264e-06
3.46823e-06
3.64424e-06
4.28757e-06
5.72202e-06
6.71498e-06
7.52889e-06
1.2135e-05
1.53177e-05
8.2665e-06
1.09604e-05
1.69803e-05
1.94467e-05
7.86371e-06
6.81952e-06
6.82159e-06
7.65173e-06
6.01458e-06
6.16773e-06
5.01811e-06
5.09889e-06
9.00028e-06
9.83601e-06
1.07401e-05
1.13431e-05
2.26059e-05
1.50682e-05
1.19532e-05
1.63064e-05
1.12965e-05
6.132e-06
5.66096e-06
5.59962e-06
7.46405e-06
7.59923e-06
7.54439e-06
6.884e-06
9.41156e-06
8.3372e-06
1.44745e-05
1.70836e-05
1.38175e-05
2.00105e-05
2.64277e-05
2.52859e-05
1.06885e-05
8.96999e-06
1.05498e-05
1.20119e-05
1.19003e-05
8.6114e-06
7.88348e-06
7.80166e-06
1.25337e-05
1.31555e-05
1.43079e-05
2.00298e-05
1.95367e-05
2.22217e-05
2.37476e-05
2.38044e-05
1.39271e-05
8.69963e-06
9.0965e-06
8.47054e-06
1.09647e-05
1.13123e-05
9.05244e-06
1.22042e-05
1.26074e-05
1.56887e-05
1.83637e-05
2.69244e-05
1.96838e-05
2.74233e-05
3.5254e-05
4.97414e-05
1.72103e-05
1.68528e-05
1.54702e-05
1.84228e-05
1.83776e-05
1.41725e-05
1.54042e-05
1.15964e-05
1.7044e-05
1.73034e-05
1.77936e-05
1.94392e-05
3.40839e-05
3.94923e-05
3.57085e-05
3.1801e-05
2.87639e-05
1.50181e-05
1.28443e-05
1.26025e-05
1.41021e-05
1.64873e-05
1.73123e-05
1.44295e-05
1.32419e-05
1.47464e-05
2.47249e-05
2.89432e-05
3.27047e-05
3.42812e-05
4.57487e-05
6.93408e-05
3.6674e-05
2.69493e-05
2.60172e-05
2.60101e-05
2.758e-05
2.05676e-05
2.10147e-05
1.68985e-05
2.291e-05
2.217e-05
2.30319e-05
2.61592e-05
4.44739e-05
4.76046e-05
4.60212e-05
4.28417e-05
3.39894e-05
2.46855e-05
1.91513e-05
1.75776e-05
1.91464e-05
2.17874e-05
2.31752e-05
1.88228e-05
1.75191e-05
2.07894e-05
2.9758e-05
3.37014e-05
3.29702e-05
3.41791e-05
5.62547e-05
8.29184e-05
4.17314e-05
3.97196e-05
2.79795e-05
3.74077e-05
3.81443e-05
2.98749e-05
2.75427e-05
2.24078e-05
2.74343e-05
2.80872e-05
2.79429e-05
3.05488e-05
4.04889e-05
5.40881e-05
5.68454e-05
4.39555e-05
4.74917e-05
3.67582e-05
2.42262e-05
2.36026e-05
2.35308e-05
2.83637e-05
3.16766e-05
2.64944e-05
2.26728e-05
2.91022e-05
3.66834e-05
3.78277e-05
4.33388e-05
3.71599e-05
4.9215e-05
0.000106492
8.11735e-05
5.56035e-05
4.6554e-05
4.83213e-05
5.27161e-05
4.56395e-05
3.16022e-05
3.4549e-05
4.35754e-05
3.55746e-05
3.48727e-05
3.50626e-05
5.46266e-05
6.91326e-05
6.30534e-05
6.06415e-05
6.59166e-05
4.19045e-05
3.34576e-05
3.11417e-05
3.41869e-05
3.56606e-05
4.02202e-05
3.1716e-05
3.10477e-05
3.59001e-05
4.13387e-05
4.49566e-05
4.61278e-05
4.86592e-05
7.52545e-05
0.000127884
0.000111887
6.69638e-05
6.86612e-05
5.32278e-05
7.1591e-05
5.54407e-05
4.47231e-05
4.05051e-05
4.4496e-05
4.65248e-05
4.6583e-05
4.64884e-05
6.32624e-05
7.43821e-05
7.62586e-05
7.01914e-05
8.07031e-05
6.90404e-05
4.58833e-05
3.9252e-05
4.12194e-05
4.50084e-05
4.91256e-05
3.98669e-05
3.68132e-05
3.66506e-05
4.45871e-05
4.93741e-05
5.23679e-05
4.74676e-05
0.000101453
0.000111084
0.000137947
9.83806e-05
8.80983e-05
7.18661e-05
8.53865e-05
7.63486e-05
5.54158e-05
5.4232e-05
5.77968e-05
5.51175e-05
5.83086e-05
5.24418e-05
6.0668e-05
6.66653e-05
8.30989e-05
9.15552e-05
8.58215e-05
7.86251e-05
5.4838e-05
4.87904e-05
4.8865e-05
4.85305e-05
5.80073e-05
4.8958e-05
4.16405e-05
4.88537e-05
5.35917e-05
5.53312e-05
6.2281e-05
5.17624e-05
0.00010501
0.000106433
0.000164241
0.000102396
9.84833e-05
8.72782e-05
0.000100108
8.50632e-05
8.17641e-05
7.90598e-05
8.67936e-05
7.04932e-05
6.58149e-05
6.70802e-05
7.00298e-05
7.70961e-05
8.77351e-05
9.15984e-05
9.55894e-05
9.99218e-05
8.06631e-05
6.41085e-05
6.17008e-05
6.22477e-05
5.99069e-05
5.86949e-05
4.91941e-05
5.24916e-05
5.62747e-05
6.09455e-05
7.14558e-05
8.67834e-05
9.78448e-05
0.000134147
0.000184146
0.000132185
0.000100602
9.15259e-05
0.000112268
0.000110126
8.64311e-05
9.4405e-05
9.57505e-05
9.08456e-05
8.24252e-05
7.68396e-05
7.20865e-05
7.59382e-05
0.000118151
0.000113648
0.000102277
0.000126981
0.00010515
7.21611e-05
6.85684e-05
6.96476e-05
6.98432e-05
6.90053e-05
6.12375e-05
6.10258e-05
5.5828e-05
6.43161e-05
7.23935e-05
6.7905e-05
0.000118162
0.000146445
0.000202517
0.000166039
0.000111118
0.000121791
0.000122918
0.000154655
0.000125463
0.000113386
0.000106389
0.000104024
9.90798e-05
9.3149e-05
8.82569e-05
9.4663e-05
0.000106983
0.000110288
0.000123139
0.000146738
0.000130099
8.71916e-05
7.96e-05
8.33323e-05
8.2763e-05
7.98778e-05
6.98288e-05
6.91235e-05
5.26054e-05
6.60112e-05
8.98111e-05
0.000118898
0.000127026
0.000144235
0.000179068
0.000224174
0.000153375
0.000133027
0.000139167
0.000162784
0.000155259
0.000102991
0.000105331
0.000118037
0.000118686
0.000117649
9.68618e-05
8.8464e-05
0.000101752
0.000113855
0.000127085
0.000156321
0.000152806
0.000111705
9.17027e-05
8.87806e-05
9.67335e-05
8.8898e-05
7.60939e-05
7.71922e-05
7.28558e-05
7.54899e-05
9.25598e-05
0.000120821
0.000142647
0.000145059
0.000163932
0.000240444
0.000152696
0.000136151
0.000141366
0.00016547
0.000166269
0.0001172
0.000110548
0.000110605
0.000136376
0.00012751
0.000110289
9.77005e-05
9.4372e-05
0.000121084
0.00012886
0.000177278
0.000162843
0.000139355
0.000118462
0.000104694
0.000106155
0.000107262
8.5826e-05
6.75304e-05
7.99555e-05
8.07435e-05
0.000107555
9.74038e-05
0.00011767
0.000116944
0.00014903
0.000239243
0.000201689
0.000151394
0.000152948
0.000167581
0.000162199
0.000145606
0.000121096
0.000121648
0.000132951
0.000144531
0.000111831
0.000112035
0.000108219
0.000120185
0.000118006
0.00015719
0.00018929
0.000158866
0.000132498
0.000104962
0.000114022
0.000111063
0.000107719
9.57783e-05
9.06307e-05
7.48665e-05
0.000108127
0.000113945
0.000125976
0.000145379
0.00016858
0.000240788
0.000219054
0.000163309
0.000167566
0.000166601
0.000173109
0.000149276
0.00012166
0.00012838
0.000149722
0.000151029
0.000131682
0.000124693
0.000105479
0.000117016
0.000114141
0.000113931
0.000163018
0.000177078
0.000134848
0.000112609
0.000118421
0.000119335
0.000105101
8.80498e-05
7.45057e-05
6.68205e-05
9.07628e-05
0.00011186
0.000128954
0.000130375
0.000134095
0.000201243
0.000219779
0.00017487
0.000171914
0.000185686
0.000164133
0.000139095
0.000123166
0.000125744
0.000139625
0.000148398
0.000149649
0.000135881
0.00010904
0.000115614
0.000110561
0.000145507
0.000189382
0.000171409
0.000141619
0.000118118
0.000129032
0.000125242
0.000105181
0.000108878
0.000105716
0.000102555
0.000124171
0.000141314
0.000132288
0.000136035
0.000136152
0.000154738
0.00020262
0.000167463
0.000161695
0.000172645
0.000175467
0.000143805
0.000125874
0.000123497
0.000145313
0.000145001
0.000149677
0.000126931
0.000108603
0.000107924
0.000111587
0.000116617
0.000124644
0.000175063
0.000151798
0.000136242
0.000130826
0.000135201
0.000118472
0.00010183
0.000111234
0.000104639
0.000116785
0.000129943
0.000138779
0.000154704
0.000145643
0.000149592
0.000192284
0.000173439
0.000150911
0.000161732
0.000167509
0.000149537
0.000130641
0.000121685
0.000137692
0.00013905
0.000142022
0.000147282
0.00012765
0.000104045
9.83538e-05
0.000109061
0.000143668
0.000164453
0.000156244
0.000137196
0.000133893
0.000135892
0.000135803
0.000123469
8.55288e-05
0.000108412
0.00011519
0.000126339
0.000140189
0.000146009
0.000131293
0.000124119
0.000172668
0.000155602
0.000139369
0.000153645
0.000162885
0.000160275
0.000136059
0.000123353
0.0001279
0.000134577
0.00012956
0.000121814
0.000100923
9.8951e-05
0.000103623
0.000107036
0.000128991
0.000159516
0.000147124
0.000140907
0.000128992
0.000135677
0.000129937
0.000119123
9.33071e-05
8.20182e-05
8.69392e-05
0.000125143
0.000135978
0.00015301
0.000119693
0.000105552
0.000143234
0.000156389
0.000131297
0.000151896
0.000180486
0.000159346
0.000154352
0.000134498
0.000135216
0.000127041
0.000126814
0.000118568
9.37653e-05
9.64134e-05
9.55852e-05
9.34293e-05
9.60294e-05
0.000124035
0.000142586
0.000139672
0.000136622
0.000135036
0.000118141
0.000110069
0.000113957