/*--------------------------------*- C++ -*----------------------------------*\
| =========                 |                                                 |
| \\      /  F ield         | OpenFOAM: The Open Source CFD Toolbox           |
|  \\    /   O peration     | Version:  v1706                                 |
|   \\  /    A nd           | Web:      www.OpenFOAM.com                      |
|    \\/     M anipulation  |                                                 |
\*---------------------------------------------------------------------------*/
FoamFile
{
    version     2.0;
    format      ascii;
    class       volScalarField;
    location    "0";
    object      p;
}
// * * * * * * * * * * * * * * * * * * * * * * * * * * * * * * * * * * * * * //

dimensions      [0 2 -2 0 0 0 0];


internalField   nonuniform List<scalar> 
98304
(
-0.0010316
-0.00472655
-0.0026994
0.00621547
0.000200462
-0.00145894
-0.0017429
0.00821812
0.0105253
0.0103426
-0.0011499
-0.00163437
-0.00234776
-0.00100109
-0.00136859
0.00218627
-0.00408025
-0.00565792
0.00124654
0.00699007
0.00495789
0.00867141
0.000111506
-0.00885663
-0.00983
-0.0034385
0.00911275
0.00332479
-0.000450721
0.00343082
0.0067374
0.00141623
-0.000863547
-0.00468714
-0.00295428
0.00592787
0.00332036
-0.00287312
-0.00205637
0.00623271
0.0106433
0.0111664
-0.00135153
-0.00167508
-0.00193223
-0.00269226
-0.00184947
0.00295854
-0.00386832
-0.00596223
0.00151248
0.00748222
0.00617493
0.00868437
0.000813522
-0.0114609
-0.000927962
-0.00367409
0.00714855
0.00356747
-0.000358099
0.000358031
0.00712648
0.000718003
0.000422291
-0.00461662
-0.00550727
0.00597991
0.00339304
-0.00232512
-0.00201516
0.00627412
0.0106795
0.00923116
0.00180126
-0.00140415
-0.0035091
-0.00261326
-0.002616
-0.00108798
-0.000952892
-0.00363321
-0.000579095
0.00754603
0.0080869
0.00876671
0.000887774
-0.0084107
-0.00996551
-0.00355022
0.00718382
0.000964055
-0.000327047
0.000400093
0.00716384
0.000752433
-0.00111082
-0.00236255
-0.00540522
0.00606695
0.000256047
-0.00272332
-0.0019392
0.00646829
0.00980066
0.0089972
-0.00124077
-0.00155473
-0.00181698
-0.00248244
-0.00245749
-0.000936627
-0.000825898
-0.00392491
0.00166964
0.00710127
0.0049225
0.0107034
-0.00574361
-0.00828285
-0.000836836
0.00140572
0.00831159
0.00101343
-0.000277077
0.00372675
0.00723117
0.000803172
-0.00105472
-0.00438674
-0.0052694
0.00680912
0.00366038
-0.000875094
-0.00181842
0.00872178
0.0118517
0.0113686
0.00197758
-0.00113591
-0.00388259
-0.00229181
-0.000959301
0.00316578
-0.00774114
-0.00537537
-0.000268203
0.00779384
0.00842821
0.00911535
-0.00296727
-0.00586811
-0.00966275
-0.00303067
0.00732173
0.0037262
0.000262685
0.00300276
0.00508994
0.00095469
-0.00258505
-0.00446358
-0.00511349
0.00684857
0.00491247
-0.000554128
-0.00163421
0.00885639
0.011981
0.00917108
0.00275727
-0.000314253
-0.00363671
-0.000510523
-0.000793285
-0.0004378
-0.000396721
-0.00494512
0.00207929
0.00724089
0.0066977
0.00939778
-0.0103942
-0.0107442
-0.00072744
-0.00482055
0.00743355
0.00382531
-0.000107652
0.000693208
0.00748391
0.000945639
-0.000860151
-0.00407116
-0.00497096
0.00510775
0.00520972
-0.000150864
0.000459903
0.00551039
0.0121418
0.0116713
0.00225483
-3.39913e-05
-0.00268803
-0.00114012
-0.00164386
0.00423522
-0.00706264
-0.00305885
0.00375325
0.00748667
0.00546679
0.00965478
-0.00489313
-0.0077615
-0.00913896
0.00619153
0.00960398
0.0064156
0.000599864
0.000846049
0.00454078
0.00153585
-0.000299186
-0.00394246
-0.00208337
0.00679202
0.00115259
0.000293351
-0.00100854
0.00686128
0.0102102
0.0118754
-0.00110229
-0.0004447
-0.00233313
-0.00144628
-0.00133998
0.00478774
-0.000949246
-0.00215515
0.00317585
0.00843463
0.00919757
0.010096
-0.00937935
-0.00965804
-0.00356819
-0.00130807
0.00992711
0.00416998
0.00016177
0.00353862
0.00305692
0.00189434
-0.0005699
-0.00385071
0.00137419
0.00764875
0.00452847
-0.00162963
0.000976752
0.00578405
0.0103671
0.0096169
-0.000518242
-0.000702782
-0.00193895
-0.000453566
-0.00109224
0.00516762
-0.00606938
0.000388199
0.00347084
0.00787116
0.00576578
0.0124202
0.00273967
-0.0088544
0.000185579
-0.0037303
0.00800624
0.0043045
0.000271285
0.00160243
0.00326927
0.00201834
-0.00215594
-0.00384717
-0.00189747
0.00763891
0.0028719
0.00094999
0.00128778
0.00710412
0.009071
0.00980182
0.00338747
-0.000667108
-0.00131703
-0.000740281
-0.000925129
0.00600341
0.000919712
-0.00205015
0.00163985
0.00811017
0.00744628
0.0138302
-0.000944691
-0.00467986
-0.0081621
0.00836119
0.0108625
0.00723142
0.00124107
0.00478594
0.00845653
0.00226015
-0.00216952
-0.00387704
-0.0047117
0.00748764
0.004821
-0.00125899
0.00159032
0.00603426
0.0106887
0.0114206
0.00295508
0.000641173
-0.00130843
-0.000797383
-0.000129043
0.00632918
-0.00507789
-0.00168715
0.00493384
0.00846499
0.00940973
0.0139467
-0.00740243
-0.00715972
-0.00753376
-0.00322414
0.0103273
0.00475017
0.000684806
0.00493934
0.00630374
0.00163958
-4.80632e-05
-0.00123858
0.00187727
0.00569598
0.00548542
0.000747618
0.000210035
0.00771443
0.0118313
0.0101548
-9.65151e-05
-0.000136366
-0.00126363
0.000275033
-0.000173035
0.00567495
-0.000571655
0.00217922
0.0056165
0.00877044
0.00744494
0.011534
0.00421948
-0.00457551
-0.00695257
-0.000313221
0.0121332
0.00801152
0.00157138
0.00439165
0.0039368
0.00247313
-0.000726759
-0.00372451
-0.000926715
0.00719212
0.00492917
-0.00138525
0.0020004
0.00623891
0.00926364
0.011705
0.00322801
0.000913269
-0.00111895
-0.000551033
-0.000746256
0.00513768
0.000649313
-0.00121339
0.00229935
0.00867733
0.00753969
0.0113582
-0.00194823
-0.00625233
-0.00212349
-0.00342073
0.00960858
0.00527821
0.00093872
0.000794445
0.00594355
0.00253784
-0.00123429
-0.00413925
0.00185496
0.00674842
0.00495024
-0.000817241
0.00206366
0.00773001
0.0127747
0.0118678
-3.91159e-05
0.000634772
-0.00142121
-0.000908867
-0.000797814
0.00573625
0.000178282
-0.0012816
0.00564018
0.00986259
0.00655356
0.0109134
-0.00216938
-0.00466113
-0.0060347
-0.00218678
0.0131995
0.00902004
0.00158835
0.00450159
0.00900009
0.00203269
-0.000475434
-0.00127766
-0.00093209
0.00646425
0.00496123
-0.000427392
0.00202891
0.00732744
0.0105953
0.0105357
0.00339753
-0.000549153
-0.0015102
-0.00165367
-0.000854017
0.00548116
-0.000901613
-0.00194986
0.0019913
0.00890269
0.00853449
0.00990522
-0.000988123
-0.00534186
-0.00537826
0.00635381
0.0126565
0.00953924
0.00162964
0.00432776
0.00682569
0.00206948
-0.000698699
-0.00165498
0.00142587
0.00649054
0.00491954
-0.00146491
-0.000423095
0.0096414
0.00852248
0.0127574
0.00391707
-0.000791148
-0.00109867
-0.00243102
-0.00101016
0.00472066
-0.00262439
5.7662e-05
0.00505349
0.0107932
0.00737061
0.00932016
-0.0012438
-0.00785747
0.000184489
-0.00422045
0.0107778
0.00992728
0.00148824
0.00357295
0.00860753
0.00237599
-0.000427925
-0.00210744
-0.00165858
0.0077242
0.00479836
-0.00273841
0.00166159
0.00746841
0.0122262
0.0108711
0.00351049
-0.000450954
-0.00241885
-0.00316557
-0.000736402
0.000441766
-0.00332059
-0.00532854
0.0014483
0.00916545
0.00692684
0.0100356
0.00220205
-0.00767529
0.00463348
-0.00451893
0.0118465
0.00647829
0.00173108
0.00063466
0.00803582
0.00298396
-0.00442955
-0.00607943
-0.00560942
0.00622973
0.0044428
-0.00170281
-0.00090005
0.00934279
0.00946239
0.0114819
0.00358319
-0.00113484
-0.00169552
-0.00335274
-0.000889606
0.00325769
-0.00238833
-0.00404014
0.00174025
0.0112934
0.00645927
0.00986348
0.00141128
-0.0090442
-0.00712068
0.00304779
0.0116022
0.00353975
0.00159391
0.000576113
0.00636579
0.00330128
-0.000192253
-0.0019754
-0.00245677
0.00530975
0.000383764
-0.00253908
-0.00120651
0.00908738
0.0116968
0.00935426
-0.000153334
-0.00110888
-0.000987761
-0.00322092
0.000429995
-0.000606908
5.33077e-05
-0.0064052
0.000409525
0.00895968
0.00689329
0.00817795
-0.00157694
-0.0099522
-0.00538569
0.00166814
0.0109026
0.00678492
0.00070268
0.00289771
0.00578149
0.00221309
0.00185687
-0.00194026
-0.00283403
0.00446124
0.00313173
-0.0034712
0.000365454
0.00612411
0.00886346
0.0113271
0.00315384
-0.00100806
-0.00311798
-0.00283006
0.000498723
-0.000601604
0.000225834
-0.0042073
-0.00145465
0.00794722
0.00653004
0.00986489
-0.00353016
-0.0116692
0.00268128
-0.0021425
0.00823459
0.00687498
0.00122225
0.00272194
0.00453619
0.00388764
-0.00431129
-0.00752762
-0.00310292
0.00366793
0.00263795
-0.00391464
-0.0015719
0.00842448
0.0118534
0.011258
0.0030246
-0.00125838
-0.000785445
-0.00221287
-0.00209808
0.000143239
-0.00109982
-0.00554829
-0.00181646
0.00823774
0.00576789
0.0094797
-0.00258955
-0.0118659
0.00146037
-0.00114126
0.00890569
0.00701438
0.00234964
0.0017734
0.00416281
0.00219222
7.61348e-05
-0.00717197
-0.00610745
0.000232685
0.00228895
-0.00424129
0.00236076
0.00601318
0.0117642
0.009508
-0.000483435
-0.00127631
-0.000940902
-0.00359573
-0.00198071
-0.000687423
-0.00107538
-0.00464855
-0.00261661
0.00808999
0.00577915
0.00976429
0.00346599
-0.0104332
-0.00621918
6.17572e-05
0.00791149
0.00768378
0.00321613
0.00108554
0.0039325
0.00431387
-0.00304763
-0.00814929
-0.00591556
0.00243459
-0.00138112
-0.00440532
-0.00117282
0.00501026
0.0114759
0.00944294
0.00338566
-0.00256024
-0.000898888
-0.00290158
-0.00216365
-0.00119601
-0.000585858
-0.00436408
-0.00343084
0.00791474
0.00525319
0.00835962
-0.000222865
-0.0114276
-0.00564812
0.000695391
0.00741569
0.00619856
0.00279751
0.00395788
0.00329642
0.00446902
0.00185488
-0.0038434
-0.0035539
0.00171964
0.000681201
-0.00464814
-0.00183987
0.00748326
0.0109481
0.0105055
0.00323149
-0.00114076
-0.000710748
-0.00132198
-0.0020525
-0.000502971
-0.00100448
-0.00311184
-0.00390648
0.00619492
0.00511713
0.00875847
-0.000590578
-0.014194
-0.0024022
0.00110746
0.00852439
0.00545801
0.00231053
0.00182204
0.00603694
0.00152532
0.00254091
-0.00444187
-0.00361946
0.00117956
-0.00164669
-0.00453768
-0.00137503
0.00662657
0.00854293
0.00908043
0.00297552
-0.00160402
-0.0014804
-0.00214145
-0.0042177
-0.000698075
-0.00216923
-0.00369889
-0.0050948
0.00804105
0.00509354
0.00783769
-0.00123075
-0.0130418
-0.00548663
-0.00193726
0.00720203
0.00483738
0.00111075
0.00601192
0.0058357
0.00111845
0.00120231
-0.00347176
-0.00438966
0.000374735
-0.00229948
-0.00426696
-0.00133137
0.00626478
0.00901723
0.00658688
0.00241327
-0.00158018
-0.000769851
-0.00231133
-0.00194916
-0.00131335
-0.00147756
-0.00235253
-0.00611383
0.00482047
0.00582831
0.00771575
0.00152869
-0.0137002
-0.00873065
0.00246254
0.00778971
0.0045122
-0.000208125
0.00324794
0.0011778
0.000497294
0.00156108
-0.00347555
-0.00782074
0.000205089
0.000480677
-0.00437401
-0.00140677
0.0051927
0.00869504
0.00822226
0.0019729
-0.0021578
-0.000612605
-0.000107179
-0.00251177
-0.00093032
-0.00158061
-0.00216648
-0.00262817
0.00568277
0.00452097
0.00646693
-0.00974455
-0.0166745
-0.00697067
-0.00150804
0.00691786
0.00219522
-0.000111232
0.00552466
0.00632863
-0.000935238
0.00205901
-0.00634875
-0.00395622
-0.00222031
-8.04052e-05
-0.00488708
-0.00182283
0.00675482
0.00897856
0.00865842
-0.00102731
-0.00255033
-4.14697e-05
-0.000359952
-0.00396365
-0.00247604
-0.00296441
-0.00334574
-0.00808088
0.00260661
0.00495885
0.0050473
-0.0112096
-0.0173456
-0.00413074
-0.00169007
0.0071398
0.00402199
-0.00040181
0.00243535
0.0013883
-0.000948065
0.0026319
-0.00287478
-0.00504196
-0.00322054
-0.00352165
-0.00441401
-0.00214574
0.00678521
0.00837531
0.00613947
0.00133517
-0.00305893
-0.00126065
4.63976e-06
-0.003595
-0.00200399
-0.00168482
-0.00338288
-0.006471
0.0014693
0.00438652
0.00540182
-0.005499
-0.0181052
-0.00921061
0.00341274
0.00673634
0.00163747
-0.000366907
0.00168767
0.00575851
-0.00116859
0.00328469
-0.0066198
-0.00612055
-0.00231507
-0.00251034
-0.00492535
-0.0020284
0.00512579
0.00803379
0.00734101
-0.000693849
-0.00351118
-0.00168366
-0.00133273
-0.00331067
-0.00222662
-0.00319304
-0.00587696
-0.00867229
0.000558412
0.00349983
0.00372935
-0.0141563
-0.0160531
-0.0112036
-0.00250484
0.00640614
0.00371783
0.000104563
0.000879714
0.00215613
0.000706923
0.00560086
-0.0116843
-0.00687461
-0.00480048
-0.00388288
-0.00556948
-0.00256478
0.00640132
0.00760641
0.00689791
0.000730556
-0.00346109
-0.000207838
-7.57746e-05
-0.00299787
-0.00377564
-0.00288829
-0.00210012
-0.00542362
-0.000263852
0.00229703
0.0040784
-0.00281166
-0.0161303
-0.0119056
-0.00308063
0.00592991
0.00144247
-0.00108618
0.00198275
0.00106702
-0.00118246
0.00519611
-0.0102646
-0.0137425
-0.00585895
-0.00550996
-0.00635346
-0.00331353
0.00586829
0.00649944
0.0043368
0.000453972
-0.00243882
0.000111308
-0.00116613
-0.00273055
-0.00450257
-0.00246439
-0.00321544
-0.00617366
-0.000608785
0.00246158
0.00346622
-0.00712493
-0.0178986
-0.0116492
0.000105002
0.00506163
0.00343477
-0.00153456
0.00126194
0.00344402
-0.00181815
0.00343323
-0.00883633
-0.0118224
-0.00737444
-0.00907988
-0.00626954
-0.00327209
0.00456037
0.00601804
0.00386373
0.000214075
-0.00304553
-0.00215482
-0.00021977
-0.0025643
-0.00527531
-0.00152919
-0.00457528
-0.00606971
-0.000629288
0.00209163
0.00315589
-0.0023603
-0.0161675
-0.0109385
-0.00570176
0.00444812
0.00154012
-0.00225063
0.000502535
0.00292231
-0.00132202
0.00369373
-0.00674625
-0.0118786
-0.00571928
-0.00800888
-0.00680891
-0.0042654
0.00438673
0.00492354
0.0032718
-0.000106859
-0.00264778
-0.00178616
-0.000719218
-0.00158176
-0.00591751
-0.00138335
-0.00320355
-0.00557717
-4.51336e-05
0.00128385
0.00323327
-0.00997809
-0.0164802
-0.0138902
-0.0059164
0.00438668
0.00278494
-0.00235003
-0.00260608
0.00108953
-0.00168321
0.00347737
-0.000152996
-0.0107711
-0.00611292
-0.00812404
-0.00621771
-0.00478664
0.0040692
0.0042317
0.00347129
-0.00032978
-0.00339182
-0.00204295
-0.00145597
-0.00390268
-0.00500947
-0.00176133
-0.00308373
-0.00454084
0.00288944
0.00304893
0.00388264
-0.00206283
-0.0155348
-0.0146401
-0.0075732
0.00338801
0.00111931
-0.00245659
-0.00434734
0.00124346
-0.00106407
0.0024583
-0.00159247
-0.00373641
-0.00483157
-0.00665074
-0.00612544
-0.0050292
0.00118008
0.00306522
0.002449
-0.000424225
-0.00359662
-0.00285905
-0.0022126
-0.000849446
-0.00671293
-0.00198341
-0.00108019
-0.00430642
0.000309555
0.00425972
0.00487383
0.000771366
-0.0140201
-0.0166688
-0.00924427
0.00104628
0.00255381
-0.00227356
-0.00569064
0.00143874
-0.000282246
0.00203856
0.000137663
-0.00539994
-0.00315886
-0.00557525
-0.00554376
-0.00461195
0.0005422
0.00211628
0.00138225
-0.0027615
-0.00379301
-0.002776
-0.00245956
-0.00316021
-0.00674102
-0.00227267
-0.000192057
-0.00307663
0.000297705
0.00521655
0.00512639
-0.00429336
-0.0114747
-0.0155269
-0.00947529
0.00232073
0.0026107
-0.00158494
-0.00480724
0.00163192
-0.000572054
0.00144879
0.00138813
0.0002608
-0.00181875
-0.00358345
-0.00468365
-0.00413235
0.000697731
0.00109861
0.00053017
-0.00112979
-0.00371811
-0.00267022
-0.00212569
-0.00212411
-0.00570653
-0.00245653
0.000661248
0.000450911
0.000749844
0.00464944
0.00472
0.00256951
-0.0095856
-0.0126185
-0.0112898
0.0016243
0.000854917
-0.00126467
-0.00426215
0.00106939
-0.000283359
0.000990945
0.00149498
0.00223927
0.000296877
-0.00104024
-0.00357755
-0.00379685
0.000885431
0.000139822
0.000186886
-0.00124981
-0.00362215
-0.00187064
-0.00157575
-0.000406179
-0.00451176
-0.00256699
0.00196179
0.00194479
0.000738787
0.00457319
0.00314453
0.00142603
-0.00652824
-0.0115537
-0.0116522
0.000155491
0.00249629
-0.000389637
-0.00414568
0.00112559
8.89367e-05
0.000725343
0.00106672
0.00186551
0.000336666
-1.25389e-05
-0.00232434
-0.0035774
0.0012474
0.000533081
-0.000377904
-0.000602704
-0.00320285
-0.00129013
-0.000284973
0.000248303
-0.00137929
-0.00253325
-0.000745084
0.0013084
0.000898161
0.00374058
0.00176003
0.000274984
-0.00422533
-0.00787427
-0.0117983
-0.0022018
0.000966471
-0.000230334
-0.00179411
8.67899e-05
0.000762488
0.000640175
0.00110413
0.000693416
-0.00039726
0.000363083
-0.00145917
-0.00251178
0.0017948
-0.000864756
-0.000798779
-0.000712869
-0.00263933
-0.00120876
0.000773163
0.000813612
-0.001266
-0.00124347
-0.00110575
0.00224235
0.00156078
0.000856525
0.000124425
-0.000534498
-0.00378421
-0.00822885
-0.00827662
-0.00178102
0.000989902
-0.00033932
-0.000875387
0.000425506
0.000747508
0.000430144
0.000645963
0.00068977
-0.000682824
0.00018228
-0.000681957
-0.00135146
0.00256611
0.000454169
-0.00088539
-0.000549078
-0.00276449
-0.00177611
0.00107835
0.000378174
-0.00173758
-0.00126583
-0.00140305
0.0019439
0.00187385
0.00117846
-0.00144478
-0.00350343
-0.00635025
-0.00391292
-0.00711021
-0.00320783
-0.00112225
-0.00151436
-0.00131308
0.000386213
0.000473606
0.000457756
0.000388711
0.000622016
-0.000350273
-0.000497607
-0.000832934
-0.000657231
0.0035731
0.00228101
4.258e-07
-0.00127199
-0.00251913
-0.000538259
0.000872767
0.000757823
-0.00127479
-0.000421027
-0.00187305
0.00207439
0.00236111
0.000856581
-0.000819967
-0.00357309
-0.0059678
-0.00115469
-0.00513796
-0.00180502
-0.00124359
-0.00180825
-0.00189993
0.000441662
0.000506109
0.000688443
0.000224466
0.00074826
-0.000635501
-0.000800089
-0.000225708
-0.000829335
0.0032639
0.00374194
0.00127614
-0.000937721
-0.00228394
-0.00231263
0.000626353
0.0012332
-0.00208999
-0.000370793
-0.000925152
-0.000192825
0.00285467
0.00157721
0.000472466
-0.00424017
-0.0052486
0.000372813
-0.00270942
-0.00268788
-0.000514644
-0.00158802
-0.00180455
0.000163427
0.000493086
0.000647574
-0.000278601
-6.55038e-05
-0.000707901
-0.000997129
0.00031299
-0.000487456
0.0022135
0.00154319
0.000199899
-0.00178958
-0.00195063
-0.00182328
0.000297832
0.00172159
-0.000606912
0.000210815
-0.000252564
-0.000386495
0.00164049
0.00133205
-0.000495164
-0.00213396
-0.00328248
0.00246858
-0.00166399
-0.00170949
-0.00122302
-0.0015774
-0.000762446
0.000203455
-3.92511e-05
0.000722619
-0.000331322
-0.00106984
-0.000982488
-0.000557533
0.000369055
5.07151e-05
0.00144498
0.00126335
-0.000409388
-0.00265582
-0.00172788
-0.000507441
0.000352397
0.00195982
0.000455574
0.00106889
0.000822879
-0.000583005
0.00091056
0.00130948
0.000916601
2.97766e-05
-0.00095766
0.000873596
-0.000316444
-0.00154149
-0.00138167
-0.00192485
-0.000816955
-0.000493902
-5.86201e-05
0.00153741
-0.000569013
-0.00209702
-0.00104401
-0.00132787
0.00039754
0.000912424
0.00100536
0.000909131
0.000586121
-0.00144421
-0.00135757
0.000304056
0.000620156
0.000939446
0.000912171
0.00117611
0.000593046
0.000118449
0.000445808
0.000694089
0.000942524
0.000396758
0.00109991
0.00284903
0.0031602
-0.0010206
-0.000917357
-0.00148474
-0.000154939
-6.64299e-05
0.000907008
0.00188888
0.000832192
-0.00151227
-0.00131696
-0.0017133
0.000532463
0.000649181
0.000337473
0.000216548
0.000602063
-0.000316464
-0.000420303
0.00021647
0.00110048
0.0010102
0.00169684
0.00186558
0.00145489
0.000442453
0.000255559
0.000374661
0.000601011
0.000826322
0.00167781
0.0013494
0.00290406
0.00016619
-0.000921707
-0.0014046
-0.000540686
0.000291267
0.00114608
0.00243967
0.00157464
-0.00198981
-0.00160235
-0.000318676
-0.00178712
0.00289185
0.00326825
0.00719471
0.00807394
-0.000146795
-0.00237702
-0.00459165
-0.000214293
-7.21919e-05
0.0025827
0.000783645
-0.00168159
0.00140893
0.0055349
0.0127523
0.00835023
-0.00382151
-0.0138679
-0.0076383
0.000102147
0.00642607
0.00146649
-0.00236298
0.00606165
0.00768332
0.0026266
0.00150472
0.000627831
-0.00208877
-0.000182511
-0.000985545
-0.00270362
0.0024083
0.00222558
0.00889075
0.00835158
-0.000168689
-0.00232127
-0.00284974
-0.000182365
0.00116002
0.00376626
0.00100591
-0.00095246
0.0016887
0.0088112
0.0103872
0.00852865
-0.00336608
-0.014296
-0.000710148
0.000274952
0.00655666
-0.00144182
-0.00238296
0.00361572
0.00439519
0.00200935
0.00154861
0.00152128
0.00231543
-0.000102232
-0.00143075
-0.00264765
0.00217311
0.00226784
0.00668323
0.00877446
0.00284054
-0.00319294
-0.00483538
-7.16163e-05
6.55432e-05
0.00148552
0.000766973
-0.000888161
0.0011828
0.00718366
0.0106847
0.00510885
-0.00978556
-0.0158979
-0.000688175
0.000787476
0.00660369
0.00250058
-0.00249186
0.00126997
0.00796106
0.00262955
0.00168487
0.00251746
0.000398527
-0.00239601
-0.000111932
-0.00255315
0.00224052
0.00233451
0.00482437
0.0084154
0.0026941
-0.00334038
-0.00280018
-0.000124041
-0.00114315
0.00384313
0.00109907
-0.00194754
0.00134224
0.0053671
0.0132579
0.00646585
-0.00969811
-0.0158143
-0.00835201
-0.00203491
0.00610808
0.0025724
-0.00225567
0.00370546
0.00447552
0.00267861
0.00176333
0.001727
0.000536135
-0.000676556
0.000461546
-0.00241133
0.0035096
0.00356804
0.00676058
0.00847139
0.00293049
-0.00220789
-0.0010683
5.87965e-05
0.000173866
0.00391315
0.00117715
-0.000670743
-0.000360532
0.00772439
0.0107767
0.00564032
-0.0100224
-0.0139387
-0.00827732
0.000943663
0.00622469
0.00185628
-0.00214639
0.00487205
0.00813536
0.00231247
0.00186288
0.00187976
0.00070536
0.00035229
0.000877825
-0.000818929
0.00377852
0.00378479
0.00683109
0.00773757
0.00300033
-0.00322785
-0.00466326
0.000162209
-0.000982605
0.00400771
0.00127472
-0.000529342
-9.43292e-05
0.00586779
0.0135996
0.00674023
-0.00228378
-0.015516
-0.00818039
0.00106507
0.006966
0.00281886
-0.00224081
0.00152754
0.00828682
0.00226871
0.00201397
0.00119493
0.00089341
0.000143299
0.00137236
-0.000395628
0.00412936
0.00275564
0.00509407
0.00900295
9.97363e-05
-0.00451374
-0.00188551
9.58656e-05
0.00171813
0.00289042
0.00128633
-0.00137569
0.000193543
0.0102332
0.0114167
0.00393827
-0.00917741
-0.0131847
-0.00510132
0.00122113
0.00713548
0.00301653
-0.00181754
0.00646692
0.00848176
0.00238366
0.00216629
0.00222494
-0.00119177
0.000635038
-0.000480255
-0.00166977
0.00295031
0.00445402
0.00934216
0.00709048
0.000207253
-0.00304949
-0.00443829
0.000440874
-0.000736553
0.00303744
0.00150946
-0.000424813
0.00317612
0.00901893
0.0129239
0.00429066
-0.00157635
-0.0148564
-0.00789881
0.000861273
0.0073632
0.00245357
-0.0015987
0.00415029
0.00719045
0.00266863
0.0023057
0.00237592
-0.00106243
0.000498222
0.00224597
-0.00135092
0.00326074
0.0048698
0.00553674
0.00888967
0.00316364
-0.00274958
-0.00240508
-0.000570161
0.00175976
0.00223476
0.00241098
0.000273193
0.00332208
0.0092576
0.0131298
0.00658319
-0.00863891
-0.0117955
-0.00757794
0.00164857
0.00762189
0.00356716
-0.00034673
0.00196678
0.00498039
0.00268961
0.00242197
0.00248945
-0.000920263
0.00101475
0.0016441
-0.00104914
0.00361303
0.00643459
0.00863812
0.0094305
0.000220912
-0.00263624
-0.00154222
0.000581727
0.0021646
0.0045868
0.00251317
-6.89675e-05
0.00064151
0.00700208
0.0148865
0.0074004
-0.000214352
-0.0142577
-0.000493339
0.00424418
0.00787495
0.000479382
-0.00106205
0.00454811
0.00751322
0.00286433
0.0025098
0.0017088
-0.000773643
-0.000126976
0.00105917
0.00103176
0.00546455
0.00556507
0.0102025
0.0083748
0.00346199
-0.00251912
-0.00164796
0.000668058
0.00173069
0.00185549
0.00258323
-0.000869578
0.000506499
0.0110695
0.0152069
0.00477608
-0.00105919
-0.0102334
-0.000218473
-0.000688404
0.00808195
0.00303128
-0.000740966
0.0022671
0.00942756
0.00304381
0.00368337
0.00175612
0.0015509
-0.00200851
0.00198003
0.00127156
0.00593795
0.0057376
0.00950415
0.00950947
0.000789452
-0.00395788
-0.0039819
-0.00107828
-0.000610519
0.00474076
0.00205763
-0.000308102
0.00269771
0.00857468
0.0130698
0.00490255
-0.00126336
-0.010185
0.00226332
0.00261101
0.0079244
0.00326664
-0.000351046
0.00507503
0.00956084
0.00323866
0.00259277
0.00264709
-0.000565174
-0.00115017
0.000612004
0.000951715
0.00598801
0.00703432
0.00870239
0.0102535
0.00371235
-0.00386092
-0.00399676
0.00119717
0.00246237
0.00375311
0.00205023
-0.00182707
0.00182824
0.0110663
0.0154521
0.00737337
-0.00121175
-0.0175436
0.00117129
0.00296576
0.00823035
0.00424718
-0.000676577
0.00237311
0.00961256
0.00343722
0.00262013
0.0026104
0.00159844
-0.00150415
0.000478051
9.21584e-05
0.00588656
0.00421034
0.00902151
0.0105755
0.00400563
-0.00127801
-0.000312698
0.00123549
-0.000197822
0.00505628
0.00207562
-0.000511367
0.0041815
0.00612838
0.0126849
0.00975434
-0.0016384
-0.0175641
0.00373389
0.00332699
0.00851485
0.00420471
-0.000112491
0.0058239
0.00790237
0.00343487
0.00371978
0.00235819
-0.00039276
-0.0022256
-0.00074225
0.00086029
0.00586112
0.00676466
0.0118097
0.00826361
0.00421311
-0.00223173
-0.00105499
0.00112709
6.07546e-05
0.00385022
0.00258361
-0.000320622
0.000671854
0.0102738
0.0150991
0.00710321
-0.0022885
-0.017125
-0.0043874
0.00261893
0.00760044
0.0021914
0.000316828
0.00834925
0.00947332
0.00356583
0.00211936
0.00387525
0.00384906
0.00243039
-0.000296469
-0.00261538
0.0053246
0.00561966
0.00965337
0.0111343
0.00433412
-0.00113848
-0.00392295
-0.000408505
0.000108008
0.00383446
0.00242043
0.000132169
-0.000181345
0.00526314
0.0117927
0.00558161
-0.00995494
-0.0130603
0.00462382
0.00158346
0.00760827
-0.000810978
0.000558333
0.00328541
0.00788279
0.00377542
0.00399322
0.00180925
0.00414674
-0.00142966
-0.000260587
-0.00257601
0.00476599
0.00456136
0.0084347
0.0094627
0.00106766
-0.00223174
-8.50119e-05
0.000299039
-7.79323e-05
0.00375393
0.00155931
-0.000251334
0.00241293
0.00479275
0.0142844
0.00949849
-0.0096252
-0.0140219
0.00456545
0.00612186
0.00711327
0.00344893
0.000610961
0.00625377
0.00664779
0.00295086
0.00404426
0.00102121
0.000173998
0.00210061
0.00113337
-0.00118347
0.00409687
0.00613928
0.00793144
0.00946031
0.00506045
-0.00347532
-0.00133155
0.0010132
0.00153893
0.00358953
0.00130604
0.000414129
-0.00126169
0.00496935
0.0140088
0.0016332
-0.00356664
-0.00712279
0.00540109
0.00656677
0.00704235
-0.000176296
0.00037808
0.00366015
0.00909393
0.00164859
0.00186273
0.000536812
0.00114068
-0.00204675
-0.000866915
-0.00268641
0.00474858
0.00476469
0.00570326
0.0115963
0.00467974
-0.00174888
-0.00159805
-0.000268374
0.0021843
0.00352256
0.00181126
0.000422661
0.00199352
0.00445099
0.00976636
0.00914312
-0.0100557
-0.0173407
-0.00122804
0.0073839
0.00753287
0.00339163
1.04575e-06
0.0068251
0.00694661
0.000793186
0.0014488
0.000226925
0.00220073
-0.00190242
0.00110146
-0.00288248
0.00255043
0.00534781
0.0104206
0.0100656
0.00463881
-0.00159592
-0.00161833
0.000299953
0.00106666
0.00362026
0.00162245
-0.00136181
-0.000286069
0.00389306
0.0128073
0.00142969
-0.00480128
-0.017618
-0.00676954
0.00419895
0.00761704
-0.000354478
0.00202111
0.00575876
0.0104706
0.00160606
0.00344897
-6.66771e-05
-0.000259964
0.00302171
0.00046026
-0.00291846
0.00376617
0.00425375
0.00995601
0.0111297
0.00604604
-0.00328028
-0.0015808
-0.000281609
0.000845193
0.0018635
0.00101396
-0.00128863
-0.00267
0.00210389
0.0114392
0.00567373
-0.00534653
-0.0175913
-0.00820695
0.00463562
0.00814239
0.00204568
-0.00147241
0.00466285
0.0105877
0.00143002
0.00306056
-0.000464455
0.00111621
-0.0011558
-0.00112736
-0.00211761
0.00128375
0.00362584
0.00928013
0.00958198
0.00327111
-0.00163597
-0.00322787
0.000587821
0.00029058
0.00377702
0.00100854
-0.00302141
-0.00301426
0.00119764
0.0109413
0.00918969
-0.0100856
-0.0157259
-0.00931203
0.00428222
0.0112696
0.00191366
-0.00224815
0.00460274
0.00820649
0.00117088
0.00210933
0.000133902
-0.000825365
-0.00123981
-0.000455316
-0.00224064
0.00249857
0.00412365
0.00728593
0.00977431
0.00658902
-0.00132219
-0.00285043
0.000356013
0.000576599
0.00144245
0.00217057
0.000398753
-0.00313315
0.00392383
0.0100016
0.004838
-0.00960985
-0.0164754
0.00031157
0.00740876
0.011959
0.00209049
-0.00217839
0.00606323
0.0114894
0.00175309
0.00218721
-0.000997735
-0.00288392
-0.00216161
-0.0012734
-0.00183241
-1.30198e-05
0.00377305
0.00721568
0.00783635
0.00431922
-0.000648796
-0.00146755
0.000440923
-0.000981916
0.00115426
0.000781882
-0.00127206
-0.00244342
0.00154924
0.00587796
0.00804472
-0.00421546
-0.0150385
-0.00455125
0.00381808
0.0118084
0.0038032
-0.00291274
0.00386737
0.0101299
0.00151256
0.00217849
-0.00135175
-0.00280795
-0.00383431
0.00105651
-0.00232692
-0.000574307
0.00276244
0.00590978
0.00808467
0.00268444
-0.000955289
-0.000485491
-0.000343836
-0.00201516
0.000743643
0.000535326
-0.00140768
-0.00334025
0.00273767
0.00837524
-0.000776568
-0.00976585
-0.0147761
-0.00151897
-0.000775834
0.0109209
-0.00116253
-0.00429896
0.00340292
0.0101075
5.70848e-05
0.00235363
-0.00162924
-0.00390437
-0.0050843
0.00110896
-0.0016673
-0.00101076
0.00238801
0.00528089
0.00783969
0.00292255
0.000295617
-0.00274528
0.00186947
-0.00306319
0.000787301
0.00043241
-0.00112587
-0.00373706
-0.0022881
0.00711652
0.00331152
-0.00825291
-0.012658
-0.00812039
0.00355559
0.0112573
0.00436353
-0.00470701
0.00275489
0.0107901
0.000188045
0.0025768
-0.0018397
-0.00420627
-0.00270623
-0.00143113
-0.00245831
-0.00126671
0.0029218
0.00684577
0.00706993
0.00398111
-0.00100243
-0.00106713
0.00159075
-0.00335259
-0.000304658
0.00117995
-0.000662994
-0.00285626
-0.00324473
0.00592026
0.00290097
-0.0114843
-0.0149716
-0.00659273
0.00428445
0.0101189
0.000632447
-0.00491025
0.00608749
0.0110703
0.00231159
0.00288219
0.000427651
-0.00464809
-0.00368179
-0.00202844
-0.00214551
-0.0017557
0.00223043
0.00515013
0.00651665
0.00418051
-0.001505
-0.00291457
0.00170562
-0.00255331
-0.00139213
0.000598138
-0.00277474
-0.00499633
-0.00171656
0.00209692
0.000984319
-0.0092035
-0.0114798
-0.00730687
0.000375328
0.00800242
0.00238961
-0.00497954
0.00694102
0.00744434
0.000370138
0.00255347
-0.00245484
-0.00513449
-0.00524529
-0.00445262
-0.00221321
-4.83489e-05
0.00207218
0.00674485
0.00617601
0.0020325
-0.00181019
0.000260692
0.00136572
-0.00304165
-0.000623922
1.0189e-05
-0.00135893
-0.00431433
-0.00236784
0.00432943
-0.00232505
-0.0124954
-0.0114204
-0.00796865
-0.000254239
0.00771061
0.00407189
-0.00287513
0.00684269
0.00921793
0.000493173
0.00196383
-0.00164552
-0.0042859
-0.00532589
-0.00464002
-0.00214263
-0.00264752
0.00482023
0.00602313
0.00605706
0.00134624
-0.00203896
-0.00292052
0.000954734
0.000742077
-0.00161459
-0.000980771
-0.000649328
-0.00453712
-0.00263783
0.00201584
0.00185696
-0.0101889
-0.0154805
-0.00800107
-0.000967359
0.00726353
0.00371697
-0.00535995
0.00160858
0.00906277
-0.00132817
0.00211573
0.00183542
-0.00580245
-0.00657057
-0.00774287
-0.00313422
-0.00196698
0.00298471
0.00604917
0.00517442
0.00360693
-0.00166239
-0.00149451
0.000487356
-0.00170645
-0.00259321
-0.0012512
-0.000678146
-0.00336681
-0.00349015
-0.000866942
0.00191399
-0.00962108
-0.0108806
-0.00822213
-0.00338168
0.00418958
0.00352441
-0.00385727
0.000586441
0.00851555
0.000558085
0.0012542
0.00220338
-0.00394019
-0.00625363
-0.00553939
-0.00327866
-0.00342384
0.00108035
0.00612401
0.00434699