/*--------------------------------*- C++ -*----------------------------------*\
| =========                 |                                                 |
| \\      /  F ield         | OpenFOAM: The Open Source CFD Toolbox           |
|  \\    /   O peration     | Version:  v1706                                 |
|   \\  /    A nd           | Web:      www.OpenFOAM.com                      |
|    \\/     M anipulation  |                                                 |
\*---------------------------------------------------------------------------*/
FoamFile
{
    version     2.0;
    format      ascii;
    class       volVectorField;
    location    "0";
    object      U;
}
// * * * * * * * * * * * * * * * * * * * * * * * * * * * * * * * * * * * * * //

dimensions      [0 1 -1 0 0 0 0];


internalField   nonuniform List<vector> 
98304
(
(0.0251028 6.44689e-05 0.00227978)
(0.028837 8.97574e-05 0.00348638)
(0.0352762 2.38927e-05 0.00171781)
(0.0242772 -9.75242e-07 0.00521525)
(0.0209502 5.00766e-05 0.00400764)
(0.0296546 -4.24313e-05 0.00400375)
(0.0266558 2.46001e-05 0.00165085)
(0.0279817 -3.29861e-05 0.00314928)
(0.0257754 -2.55375e-05 0.000855933)
(0.0196699 -3.36233e-06 0.000705329)
(0.0197739 2.18898e-05 0.000938428)
(0.0200952 1.002e-05 0.00148073)
(0.0209422 4.51099e-06 -0.00196887)
(0.0252074 -1.00831e-06 -0.0022266)
(0.0259959 -2.65727e-06 -0.000710437)
(0.0230761 -4.62476e-05 0.00427473)
(0.0219868 0.000100223 -0.00451571)
(0.0228126 -2.45102e-05 0.000383226)
(0.0243012 -6.95457e-05 -0.00291783)
(0.0324295 6.24302e-05 0.00149273)
(0.034876 5.45261e-05 -0.00610234)
(0.0256539 -3.58911e-05 -0.00194338)
(0.0262062 -4.53047e-05 0.00474246)
(0.0284171 1.68547e-05 0.00366216)
(0.0273733 0.000132897 0.00826865)
(0.0204326 2.15449e-05 0.00913727)
(0.0207192 -2.45737e-05 0.00250771)
(0.019958 -1.60672e-06 0.00270188)
(0.0200002 -3.94684e-06 -0.000479422)
(0.0194687 -3.17551e-05 -0.0021339)
(0.0185226 -3.77749e-05 -0.00146628)
(0.0234928 3.41379e-05 0.00318833)
(0.0505908 0.000246251 0.00454759)
(0.0654161 0.000299971 0.00849468)
(0.0738762 4.87255e-05 0.00449029)
(0.0524632 -7.96747e-05 0.0103502)
(0.0502387 0.000145831 0.00902452)
(0.0414405 0.000124757 0.00505847)
(0.0559692 2.10777e-05 0.00381058)
(0.0589388 -8.98934e-05 0.00891812)
(0.0540938 -9.06081e-05 0.00186014)
(0.0449643 -1.31835e-05 0.00215445)
(0.0429824 7.82134e-05 0.00199836)
(0.0438345 3.07682e-05 0.00292818)
(0.0501703 3.83377e-05 -0.00487524)
(0.0646905 -2.97831e-05 -0.00177257)
(0.0627406 -7.49967e-05 0.00706168)
(0.0498193 -1.0424e-05 0.000320103)
(0.0465513 0.00031061 -0.00887107)
(0.0493113 -0.000126879 0.00085824)
(0.0519544 -0.000228748 -0.00486151)
(0.0789949 4.60352e-05 -0.0086167)
(0.0778581 -7.10747e-05 -0.00565441)
(0.0545449 -3.57692e-05 -0.000166918)
(0.0541337 -0.000118501 0.00834536)
(0.0376823 -9.55725e-05 0.00207532)
(0.0428084 7.93955e-05 0.00202421)
(0.0438862 7.07587e-05 0.018192)
(0.0379638 6.14759e-05 0.00191798)
(0.0391136 8.88386e-05 0.00274546)
(0.0434831 3.80866e-07 -0.0012716)
(0.045719 -2.49044e-05 -0.00325237)
(0.0407371 -0.000113656 -0.00241168)
(0.0404307 0.000141002 0.000296884)
(0.0731725 0.000323386 -0.00336852)
(0.111901 0.000772744 0.015551)
(0.123869 0.000436554 0.0117807)
(0.0908043 -0.000125461 0.0168281)
(0.086504 0.000417363 0.0148252)
(0.0701183 0.000206044 0.00401769)
(0.0971775 7.71263e-05 0.00693824)
(0.102293 -0.000203968 0.0147729)
(0.093829 -0.000215044 0.00278276)
(0.0766831 0.000156413 0.00446065)
(0.07672 0.000457912 0.00697409)
(0.0812474 -4.31496e-05 0.0053064)
(0.0874879 0.000261943 0.00102751)
(0.111143 -9.71694e-05 -0.0023563)
(0.117343 -0.000132639 -0.000547545)
(0.100812 0.000222989 0.00987449)
(0.107778 -0.000182517 -0.0217671)
(0.108941 -0.000443168 0.00445287)
(0.113956 -0.000690437 0.0027403)
(0.135807 9.16488e-05 -0.0148806)
(0.129372 -0.000680791 -0.00303501)
(0.0932141 -4.91092e-05 -0.000848638)
(0.0913643 -0.000257306 0.0121554)
(0.101679 0.000168089 0.00945418)
(0.100788 0.00104372 0.0278528)
(0.0788295 0.000178101 0.0302898)
(0.0649096 0.000169661 0.00281165)
(0.068191 0.000207557 0.00258067)
(0.0745694 1.9595e-05 -0.00249098)
(0.0794715 -7.8575e-05 -0.00534643)
(0.0701157 -0.000242848 -0.00329714)
(0.0694052 0.000372877 0.000709617)
(0.107912 0.000637625 -0.00532529)
(0.132899 0.000543862 0.00444156)
(0.179307 0.000819425 0.0188379)
(0.132247 -0.000132778 0.0229997)
(0.117271 0.000920171 0.0197942)
(0.105354 0.000638261 0.012961)
(0.142412 8.90099e-05 0.0103067)
(0.113942 0.000438013 0.0199841)
(0.107967 -0.000132414 0.0107135)
(0.107737 0.000124584 0.000447449)
(0.106469 0.000358308 0.00535875)
(0.108802 0.000236131 0.00642952)
(0.124247 0.000271821 -0.00868566)
(0.160442 -0.000227117 -0.00189407)
(0.171793 -0.000293636 -0.000381733)
(0.146091 0.000386832 0.0147272)
(0.15595 -0.000329976 -0.0289193)
(0.155476 -9.87437e-05 -0.000794978)
(0.130654 -0.000983698 -0.00915707)
(0.1682 0.000945284 0.00135954)
(0.186394 0.000406566 -0.0259165)
(0.134314 -0.000995812 -0.0241649)
(0.135223 -0.00044387 0.0170737)
(0.147114 0.000219422 0.0110661)
(0.107247 0.000631689 0.00891903)
(0.0844448 0.000665803 0.0265514)
(0.0897394 0.000239484 0.00872537)
(0.0978996 0.000402203 0.00241102)
(0.107491 5.77744e-05 -0.00391777)
(0.111416 -0.000501056 -0.00885682)
(0.101755 -0.000394712 -0.00375496)
(0.100267 0.00075028 0.00139359)
(0.142271 0.0010814 -0.0048967)
(0.211403 0.00251546 0.033515)
(0.237555 0.00134604 0.0275679)
(0.178843 0.00066882 0.0276411)
(0.168956 0.00157106 0.0258873)
(0.212706 -0.000901604 0.0283942)
(0.191896 7.17352e-05 0.0138419)
(0.19939 -0.000631947 0.0192789)
(0.172909 -0.000614624 0.00101019)
(0.147595 5.38572e-05 0.00581347)
(0.145163 0.00146632 0.0129546)
(0.158313 -0.000168436 0.00843506)
(0.184976 0.000450817 0.0087224)
(0.212038 -0.000445576 0.000281706)
(0.190501 4.24262e-05 -0.00209239)
(0.173473 -0.000649017 0.0244984)
(0.153518 0.00216532 -0.00894654)
(0.174274 -0.00133535 0.0109461)
(0.219305 -0.00233867 0.00816384)
(0.259926 0.000120848 -0.0277728)
(0.259252 -0.00225512 -0.00440335)
(0.179315 0.00015059 -0.00282612)
(0.149481 0.00155958 -0.00308032)
(0.209356 0.00104825 0.0111297)
(0.204855 0.00302692 0.0492953)
(0.169219 0.000572136 0.0551107)
(0.123516 0.000630654 0.00408663)
(0.125879 0.000782145 0.00492233)
(0.130442 0.000404912 -0.000869538)
(0.132907 0.000113207 -0.0106763)
(0.12972 0.0002321 -0.00194873)
(0.130954 0.00112034 0.00122857)
(0.206301 0.00393783 0.023511)
(0.24018 0.00405956 0.037133)
(0.297522 0.00203032 0.0379494)
(0.329176 -0.00074402 0.0241383)
(0.320995 -0.000381082 0.0385614)
(0.274728 -0.0013081 0.0365706)
(0.245646 -1.18623e-05 0.0173669)
(0.253206 -0.000817343 0.0242342)
(0.221263 -0.000812115 0.000701871)
(0.177409 0.000414116 5.7205e-05)
(0.178481 0.00122716 0.00683773)
(0.203705 0.000396341 0.012462)
(0.231388 0.000507207 0.0145194)
(0.22789 4.17718e-05 -0.0092458)
(0.23971 5.97009e-05 -0.00370293)
(0.24567 0.000826956 0.0280477)
(0.260047 -0.000769368 -0.0383241)
(0.225892 -0.0021523 0.018235)
(0.21948 -0.00220783 -0.00992349)
(0.328201 -0.00054377 -0.0235562)
(0.329576 -0.00166108 -0.0218918)
(0.227874 0.000433573 -0.00370558)
(0.177559 0.00134019 -0.00501143)
(0.178944 -0.00223941 -0.00588418)
(0.183501 0.00171688 0.0184693)
(0.152461 0.00383016 0.047978)
(0.155201 0.00100599 0.00482308)
(0.157454 0.0012385 0.00466268)
(0.177294 0.000227548 -0.00721237)
(0.199074 -0.000386122 -0.0113808)
(0.172577 -0.000610465 -0.00400519)
(0.16725 0.00199136 0.00377564)
(0.214759 0.00273746 -0.00196849)
(0.314817 0.0053798 0.0554182)
(0.357733 0.0028885 0.0496261)
(0.392058 -0.000966342 0.0255432)
(0.395781 -0.000451358 0.0424934)
(0.343709 -0.00174745 0.0447408)
(0.217869 0.000890987 0.0171468)
(0.230433 0.00269753 0.0326242)
(0.273454 -0.000965758 0.000156054)
(0.228337 0.000220774 0.00684882)
(0.220748 0.00304205 0.0192969)
(0.248483 0.000692785 0.0130061)
(0.248346 0.00160132 0.0109278)
(0.344923 -0.00184186 -0.0110636)
(0.358896 -0.00163593 -0.00436499)
(0.263323 0.000650161 0.00604814)
(0.238075 0.00393978 -0.00578903)
(0.318834 -0.000236096 0.00404017)
(0.262177 -4.01709e-05 -0.0054848)
(0.317825 0.00271367 0.00313481)
(0.387283 0.000632434 -0.0325675)
(0.265828 -0.00100184 -0.0152316)
(0.256249 -0.0018629 0.0086319)
(0.291438 -0.000903711 -0.000449077)
(0.336135 0.00589184 0.0663724)
(0.262784 -0.00134381 0.0646774)
(0.215757 -0.00153512 0.0235076)
(0.205885 7.43499e-05 0.0206577)
(0.201767 0.00118187 -0.000233643)
(0.243945 -0.00044748 -0.0132649)
(0.213213 0.00168278 0.0045978)
(0.234898 0.00270963 0.0250005)
(0.286205 0.00669406 0.0362746)
(0.365643 0.00703299 0.0665428)
(0.442751 0.00143985 0.0528856)
(0.323535 0.000968564 0.0464951)
(0.306005 0.00526992 0.0402523)
(0.419493 -0.00219429 0.051985)
(0.364759 -0.000659358 0.0250905)
(0.277157 0.00323804 0.0300828)
(0.268377 2.4902e-05 0.0147018)
(0.273129 0.000359308 0.00662769)
(0.262018 0.00216393 0.0180653)
(0.294588 -0.00069528 0.0105191)
(0.291666 0.0020975 0.0136252)
(0.373287 -0.00206443 0.0238395)
(0.422802 -0.00255112 -0.00825139)
(0.318892 0.00101672 0.0107235)
(0.356202 0.000173367 -0.0295809)
(0.395731 -0.00319461 0.0122983)
(0.400688 -0.00521224 0.0123845)
(0.457085 -0.000241228 -0.0377582)
(0.489157 -0.00648065 -0.0112374)
(0.337113 0.00137015 -0.00372622)
(0.272456 0.0015588 -0.0209291)
(0.278278 -0.00545851 -0.0226526)
(0.265109 0.0083892 0.0463747)
(0.371957 0.00182839 0.0888066)
(0.257698 -0.00201464 0.0277249)
(0.246038 0.000944623 0.0148758)
(0.248834 0.000647438 -0.0113868)
(0.247313 0.000950291 -0.0127921)
(0.257624 0.00341697 0.0199544)
(0.284922 0.00474824 0.03319)
(0.290206 0.00533544 0.00474394)
(0.414608 0.00920498 0.0768679)
(0.408826 0.00154442 0.0541645)
(0.376304 0.00354969 0.0450701)
(0.373761 0.00683495 0.0406507)
(0.332656 0.00569586 0.0391122)
(0.307645 0.00157348 0.0252632)
(0.315661 0.00558522 0.0369552)
(0.313505 0.000399029 0.0132172)
(0.291235 0.00109025 -0.00221244)
(0.300621 0.00171345 0.0128612)
(0.306467 0.000570388 0.0183531)
(0.335972 0.00269006 0.0154603)
(0.456289 -0.0033122 0.00375171)
(0.481922 -0.00376775 -0.0130036)
(0.422856 -0.00160299 0.0490569)
(0.333421 0.00559241 0.000348716)
(0.419057 -0.00800574 0.0255798)
(0.363806 -0.00427169 0.000173261)
(0.40025 0.00338513 0.0136186)
(0.517054 0.000140838 -0.0211211)
(0.439462 -0.00512584 -0.0315159)
(0.332226 -0.000563675 -0.00547112)
(0.33588 -0.00789527 -0.0346177)
(0.318374 0.0035368 0.0229161)
(0.295548 0.010053 0.0749722)
(0.259458 0.00258121 0.00994948)
(0.25884 0.00330272 0.00371188)
(0.296303 0.00149485 -0.0122695)
(0.288099 0.00206538 -0.00207892)
(0.298562 0.00455017 0.0238454)
(0.331386 0.00721821 0.0407012)
(0.373764 0.0133322 0.0529097)
(0.460963 0.0104879 0.0854)
(0.559561 0.00303069 0.0795782)
(0.597277 -0.000500587 0.0408369)
(0.619444 -0.000180113 0.0512513)
(0.583566 -0.00282524 0.0601573)
(0.355862 0.00196301 0.0297412)
(0.363245 0.00675053 0.030902)
(0.368672 0.00269802 0.0183135)
(0.330864 0.00137617 -0.00353497)
(0.332907 0.00357457 0.00691993)
(0.351011 4.96731e-05 0.018632)
(0.340801 0.00429553 -0.00387875)
(0.415043 0.00241086 0.00787732)
(0.532955 -0.00507134 -0.0173829)
(0.444216 0.0020948 0.0215304)
(0.473919 -0.00102273 -0.0277956)
(0.484293 -0.000359742 0.0152501)
(0.490687 -0.00960815 0.032203)
(0.559595 -0.00361152 -0.00037502)
(0.583132 -0.00580106 -0.0376924)
(0.553201 -0.00488828 0.0050771)
(0.403338 0.00481365 -0.0285192)
(0.452608 -0.00201884 -0.0350398)
(0.522778 0.00432565 0.0146109)
(0.483621 -0.000338729 0.0810726)
(0.351062 -0.00302663 0.034337)
(0.321945 -9.28257e-06 0.0272564)
(0.320514 0.00365139 -0.00110871)
(0.386595 -0.00147339 -0.0223407)
(0.346417 0.000258786 -0.00607007)
(0.378959 0.00901717 0.0473128)
(0.416672 0.0177297 0.0647213)
(0.504656 0.0128362 0.0949219)
(0.569941 0.00748016 0.102763)
(0.477264 0.00467976 0.0655826)
(0.478368 0.0103911 0.042873)
(0.446132 0.0100919 0.0445839)
(0.406191 0.00252435 0.0338404)
(0.40036 0.00940679 0.0404572)
(0.405636 0.00217562 0.00649346)
(0.378123 0.00115236 0.00399132)
(0.38664 0.00677819 0.0256901)
(0.442875 0.00234109 0.0179415)
(0.378401 0.00619212 -0.00252381)
(0.457642 0.00446262 0.0120748)
(0.470405 -0.000703348 -0.0234089)
(0.513018 0.0023098 0.027018)
(0.435754 0.00606084 -0.00383271)
(0.537774 -0.0116612 0.0358197)
(0.469684 -0.00483681 0.0111788)
(0.459403 0.00261167 0.0337789)
(0.682779 -0.0112103 -0.0172128)
(0.624919 -0.00506574 0.00734536)
(0.46168 -0.000365579 -0.0533482)
(0.469468 -0.0142953 -0.0628986)
(0.563948 0.00112807 -0.00777916)
(0.414688 0.0150564 0.0801007)
(0.335206 0.00283084 0.0292287)
(0.330221 0.00513852 0.00395251)
(0.352609 0.00165145 -0.0207975)
(0.433437 -0.000644636 -0.0256892)
(0.358913 0.00464059 0.00384496)
(0.353572 0.00897835 0.0172387)
(0.403004 0.0128992 0.0213053)
(0.478567 0.00993066 0.0502827)
(0.568702 0.0055511 0.082353)
(0.685411 0.00220685 0.0748783)
(0.719397 -9.159e-05 0.0381324)
(0.735339 -0.00234385 0.0578512)
(0.622055 -0.00577719 0.042891)
(0.603239 0.000105395 0.0563317)
(0.557311 0.00201136 0.0283483)
(0.410952 0.00222347 -0.00854397)
(0.42147 0.00338793 0.00542631)
(0.432531 0.00571668 0.0171904)
(0.41653 0.00784663 -0.00226608)
(0.518339 0.00305677 0.00363631)
(0.552663 0.00232533 -0.000742363)
(0.645266 -0.00282516 0.0512582)
(0.476085 0.0116977 -0.0127379)
(0.614437 -0.0135664 0.0160795)
(0.528644 -0.0044074 0.0145526)
(0.483566 0.00210373 0.0460559)
(0.708666 -0.00926764 0.0199806)
(0.549166 -0.00212327 -0.000890533)
(0.480488 0.00133831 -0.0198225)
(0.52085 -0.00823532 -0.0766544)
(0.590974 -0.00296818 -0.037592)
(0.713533 0.00303034 0.0723857)
(0.453819 -0.00344231 0.034671)
(0.40059 -0.000564341 0.0293218)
(0.39974 0.00560622 -0.0026889)
(0.417184 0.00545653 -0.00778097)
(0.408075 0.0064374 0.0219872)
(0.466599 0.012755 0.0538408)
(0.514775 0.0247157 0.0704435)
(0.59238 0.0162296 0.112143)
(0.583241 0.00800497 0.0869066)
(0.574936 0.00909957 0.0777575)
(0.565658 0.0132536 0.0449858)
(0.552992 0.0158311 0.0451242)
(0.509074 0.0039034 0.0365168)
(0.479001 0.0128258 0.0451795)
(0.492728 0.00929141 0.0116816)
(0.463472 0.00299273 -3.26039e-05)
(0.468945 0.0080385 0.0174134)
(0.536639 0.00291307 0.0221931)
(0.519236 0.00523168 0.0116111)
(0.614862 -0.00323568 0.074801)
(0.643388 -0.00746999 -0.0106665)
(0.709064 -0.00281048 0.0475295)
(0.590402 0.00115284 -0.0124205)
(0.659632 -0.00657965 0.0149904)
(0.641175 -0.0124998 0.0365059)
(0.64739 -0.00762999 0.0363742)
(0.687268 -0.00798147 -0.0256132)
(0.608584 -0.00277978 0.00273686)
(0.532386 -0.00070135 -0.0529656)
(0.62207 -0.0222395 -0.0783251)
(0.491473 0.00839988 0.0200311)
(0.526585 0.0177778 0.0695576)
(0.408797 0.00303309 0.0198098)
(0.402958 0.0063171 0.0060463)
(0.421016 0.00190804 -0.0250032)
(0.482589 0.00435147 -0.0236333)
(0.449057 0.00587898 0.00166323)
(0.501927 0.0126971 0.0517806)
(0.555891 0.0269893 0.0677474)
(0.634156 0.0205314 0.118406)
(0.655087 0.0087946 0.103325)
(0.619675 0.0121011 0.0846518)
(0.60136 0.0143189 0.0476293)
(0.575393 0.014358 0.0378829)
(0.560349 0.00467295 0.0342251)
(0.703339 -0.00134114 0.0543988)
(0.63577 0.00533387 0.0114655)
(0.505148 0.00455741 -0.00257388)
(0.490898 0.00435226 -0.007193)
(0.573505 0.00322162 0.0176085)
(0.564784 0.00649512 0.00590901)
(0.653077 -0.00330154 0.0688563)
(0.670199 -0.00787267 -0.00164152)
(0.710749 0.00534819 0.0366722)
(0.595392 0.0117184 -0.00146354)
(0.708702 -0.0203706 -0.00521157)
(0.654075 -0.00323924 0.0138076)
(0.542101 0.00105247 0.0681311)
(0.731172 -0.0153308 0.0401721)
(0.663663 -0.00338973 0.00505013)
(0.586494 -0.000409685 -0.0472139)
(0.634948 -0.00980098 -0.0864608)
(0.637604 -0.0149177 -0.0902704)
(0.804541 -0.00227748 0.0364986)
(0.561938 -0.00166271 0.0291095)
(0.478037 -0.000981427 0.0282753)
(0.470826 0.0066754 -0.00386375)
(0.541605 0.00481742 -0.03363)
(0.528703 0.00588565 -0.0191463)
(0.45659 0.0145661 0.015602)
(0.507764 0.0233486 0.0265218)
(0.588747 0.020575 0.0630325)
(0.651156 0.0129039 0.0957778)
(0.66106 0.0158314 0.092723)
(0.788872 7.42989e-06 0.0369198)
(0.842125 -0.00100408 0.0467491)
(0.609444 0.00536893 0.0309571)
(0.550872 0.0175539 0.0494978)
(0.572708 0.0108049 -0.00476308)
(0.524973 0.00574234 -0.020163)
(0.542981 0.00877743 0.00226341)
(0.542743 0.0043798 0.00509818)
(0.603082 0.00762013 0.00118484)
(0.686684 -0.00247163 0.0568209)
(0.692132 -0.00739785 0.00680071)
(0.76419 0.00669754 0.0383173)
(0.658816 0.0108689 0.00274147)
(0.755215 -0.0240749 0.00392268)
(0.726926 -0.0136524 0.0419421)
(0.727115 -0.00213254 0.0258717)
(0.759785 -0.0152319 -0.0051432)
(0.733591 0.00447478 0.0208158)
(0.684445 0.0017382 0.00182934)
(0.695286 -0.0100217 -0.0799031)
(0.669607 -0.0200738 -0.107909)
(0.847076 0.00238657 0.0539836)
(0.617167 0.00132473 0.0293782)
(0.518588 -0.000958058 0.026922)
(0.503431 0.00669734 -0.00606575)
(0.52826 0.0142675 0.00212009)
(0.5272 0.0117513 -0.0153167)
(0.485695 0.0161859 0.0097936)
(0.535086 0.0291444 0.025258)
(0.583582 0.0256582 0.0440875)
(0.721557 0.0129253 0.114937)
(0.699261 0.0197933 0.101784)
(0.662894 0.0165578 0.0518042)
(0.659616 0.0200386 0.0379156)
(0.827448 -0.0120854 0.0263504)
(0.761962 0.00378729 0.061368)
(0.59057 0.0168994 0.0227894)
(0.657006 0.00807686 -0.00672074)
(0.535294 0.00837375 -0.0273015)
(0.571672 0.00374832 -0.00797716)
(0.572688 0.0151436 -0.014288)
(0.714481 -0.00183529 0.0397084)
(0.747804 -0.00974508 -0.00844857)
(0.808624 0.00794784 0.0380574)
(0.720478 0.0117784 0.00739226)
(0.821016 -0.0247228 0.0105709)
(0.703689 -0.0133421 0.0622893)
(0.634228 0.00544328 0.0606133)
(0.744638 -0.00798763 -0.00323748)
(0.772613 0.00474421 0.0234728)
(0.720886 0.00036604 0.00977341)
(0.826838 -0.0299621 -0.0668654)
(0.580611 -0.00589014 -0.0184932)
(0.629766 0.00868946 0.0344467)
(0.536756 0.00185923 0.0338263)
(0.562247 -0.000745136 0.0251121)
(0.525632 0.00312901 -0.0272675)
(0.584525 0.00962077 -0.0238424)
(0.598631 0.0117728 -0.027627)
(0.517215 0.0167304 -0.00920029)
(0.559542 0.0312356 0.0236761)
(0.61003 0.0308954 0.0402586)
(0.702965 0.0219013 0.091318)
(0.709343 0.0226951 0.0806208)
(0.690902 0.0182689 0.0506651)
(0.700527 0.0252634 0.053785)
(0.697827 0.0055384 0.021838)
(0.61906 0.0176716 0.048802)
(0.723331 0.0132665 0.0177543)
(0.653115 0.00921693 -0.0162953)
(0.597918 0.0102846 -0.0116962)
(0.637953 0.00296224 -0.0078057)
(0.688657 0.00340122 -0.0186636)
(0.634222 0.0230992 -0.00718079)
(0.73122 -0.00401007 0.0193241)
(0.773267 0.00465073 0.0427638)
(0.78066 0.0136855 0.017325)
(0.806353 -0.0311711 0.00982377)
(0.804807 -0.016538 0.0419908)
(0.760026 -0.00214829 0.0452305)
(0.763216 -0.00744088 0.000957693)
(0.779641 -0.00590185 0.00959982)
(0.722587 0.00298377 0.00144994)
(0.79735 -0.0101701 -0.0668863)
(0.682111 -0.0201648 -0.0563448)
(0.805616 -0.0251948 -0.0262585)
(0.651218 0.00826094 0.0551308)
(0.545798 0.00216285 0.0226812)
(0.559322 0.00332016 -0.0269596)
(0.569012 0.0108635 -0.00819293)
(0.624293 0.0146277 -0.0261321)
(0.561734 0.00686134 0.00464421)
(0.670097 0.0355388 0.0538995)
(0.763484 0.0253138 0.0899953)
(0.826205 0.0092059 0.131393)
(0.858508 0.00736337 0.0936338)
(0.830677 0.00266927 0.0396283)
(0.871122 0.00312711 0.0309607)
(0.870935 -0.015296 0.00964034)
(0.819402 0.00189936 0.041855)
(0.669898 0.0145695 0.00489146)
(0.656308 0.0119341 -0.0102916)
(0.588224 0.0118801 -0.0386134)
(0.620282 0.00242712 -0.0316383)
(0.668724 0.00459961 -0.0182741)
(0.756489 -0.00105927 -0.00388797)
(0.750464 -0.0018194 0.0205418)
(0.867166 0.00848216 0.0348743)
(0.836362 0.0159315 0.0276437)
(0.851948 -0.032815 0.0105432)
(0.861127 -0.0103133 -0.00593455)
(0.707412 0.00716629 0.0719913)
(0.74685 -0.0268599 0.0452705)
(0.805072 -0.00694659 0.00226722)
(0.758766 0.00242028 0.00347492)
(0.830276 -0.00985862 -0.0633357)
(0.761317 -0.0375834 -0.119443)
(0.863075 -0.0132366 0.0135875)
(0.788638 0.0135505 0.0403312)
(0.574407 0.000669338 0.00796316)
(0.576463 0.00668443 -0.0223503)
(0.587608 0.0113194 -0.00602967)
(0.635326 0.0199157 -0.0236886)
(0.586729 0.00479031 6.75197e-05)
(0.605345 0.0351537 0.0140351)
(0.642183 0.0383875 0.0368704)
(0.72827 0.0318948 0.0608702)
(0.778304 0.030552 0.116618)
(0.742171 0.0192995 0.0438935)
(0.859878 -0.00260275 0.0286851)
(0.881422 -0.0170202 0.00828418)
(0.839904 -4.44954e-05 0.0307478)
(0.778274 0.0156307 0.0189307)
(0.669402 0.0150006 -0.0139862)
(0.617 0.00629235 -0.0496032)
(0.641091 0.000349425 -0.0460769)
(0.628615 0.0113121 -0.0181392)
(0.771361 -0.00100354 -0.0157509)
(0.690438 0.0115403 -0.0310388)
(0.754247 0.00498799 0.00734495)
(0.832508 0.00747406 -0.0033159)
(0.848846 -0.0275435 -0.00407332)
(0.881889 -0.0143453 -0.00451444)
(0.810689 -0.00198513 0.06592)
(0.812952 -0.00682798 0.0147601)
(0.842171 0.0059791 0.00977448)
(0.794779 0.00328234 0.00858759)
(0.846073 -0.0083106 -0.0613912)
(0.850824 -0.0317665 -0.142097)
(0.846893 -0.0215377 0.00307804)
(0.837659 0.0165593 0.0358933)
(0.638041 -0.00144442 0.0101662)
(0.610386 0.00892245 -0.0187277)
(0.635414 0.0233741 0.00988721)
(0.661391 0.0227537 -0.0166543)
(0.606536 0.0195106 -0.033827)
(0.61143 0.028659 -0.0141521)
(0.655006 0.041104 0.0317948)
(0.728339 0.0364366 0.040204)
(0.782546 0.0349842 0.106306)
(0.754646 0.0260833 0.045068)
(0.741599 0.026021 0.0483517)
(0.796411 0.0020648 0.0256638)
(0.73639 0.00839881 0.0242882)
(0.718301 0.0151098 0.0412151)
(0.72323 0.0160393 0.00418639)
(0.649254 0.0182168 -0.0385975)
(0.665059 -0.000174874 -0.0583295)
(0.713391 -0.000723641 -0.0395985)
(0.684567 0.0234822 -0.0171185)
(0.728556 0.0269028 -0.00904336)
(0.764562 0.00430604 -0.0012825)
(0.878476 0.012478 0.0564586)
(0.836953 -0.00626127 -0.0248786)
(0.878451 -0.0251121 0.0289331)
(0.840101 -0.00996967 0.0844922)
(0.845336 -0.00776458 0.0224578)
(0.841447 -0.00777493 0.000133141)
(0.778817 0.00534193 -0.00164753)
(0.879026 -0.0360078 -0.0946584)
(0.884222 -0.0283761 -0.0937917)
(0.722154 -0.0198041 -0.0180505)
(0.774995 0.0117531 0.0465012)
(0.687613 -0.0012598 0.00754712)
(0.628011 0.00695075 -0.0224299)
(0.659006 0.0228908 0.00653808)
(0.663129 0.0234582 0.0174302)
(0.627611 0.00582111 -0.0249257)
(0.710597 0.0281477 0.014143)
(0.760843 0.0279291 0.0469036)
(0.72793 0.0402278 0.0245261)
(0.780668 0.0406546 0.0870209)
(0.765012 0.0303629 0.0455773)
(0.754834 0.0248611 0.0433488)
(0.891834 -0.0203589 0.00856047)
(0.875754 -0.0077355 0.0149272)
(0.839543 0.0145187 0.0354058)
(0.755372 0.0165984 0.00951854)
(0.68505 0.0210524 -0.0324388)
(0.69242 -0.00326766 -0.0616593)
(0.661434 0.0123459 -0.0439435)
(0.694316 0.0204939 -0.022848)
(0.819136 0.0105635 0.0211507)
(0.848505 -0.00915308 -0.00416464)
(0.883567 0.0147146 0.0149433)
(0.845181 -0.020024 -0.0109699)
(0.886547 -0.0204978 -0.00114504)
(0.858935 -0.00498271 0.0589012)
(0.850677 -0.00765023 0.0422536)
(0.852873 -0.0263139 0.0297772)
(0.792464 0.0100016 -0.00241089)
(0.866325 -0.0375059 -0.106076)
(0.941586 -0.0319627 -0.103472)
(0.75118 -0.0229098 -0.0486327)
(0.783585 0.0104197 0.0413105)
(0.724138 -0.000217548 0.0455139)
(0.64257 0.0038535 -0.0218114)
(0.635217 0.00527188 -0.00692654)
(0.688666 0.024899 0.0247091)
(0.678151 0.0194107 -0.0409484)
(0.661112 0.0378129 -0.0209113)
(0.787938 0.0263793 0.0378296)
(0.826486 0.0130973 0.048447)
(0.8478 0.00954351 0.0931892)
(0.77406 0.0337042 0.0436234)
(0.783982 0.0179616 0.0364376)
(0.830523 -0.0102839 0.0075756)
(0.805913 -0.00204068 0.0172924)
(0.872123 0.0146578 0.0402303)
(0.779968 0.0227007 -0.00528044)
(0.721892 0.00951232 -0.0423675)
(0.716729 -0.000125729 -0.0552589)
(0.68925 0.00746991 -0.0483723)
(0.828912 0.00244555 -0.0153458)
(0.818583 0.00608121 0.00858689)
(0.78707 0.00755866 -0.0172051)
(0.896643 0.0187293 0.00995716)
(0.932712 -0.0108134 -0.0125005)
(0.883507 -0.0213364 0.00643556)
(0.923259 -0.00644075 0.0974119)
(0.917926 -0.00778327 0.0521843)
(0.870499 -0.00494614 0.020416)
(0.847238 0.0185046 -0.00453083)
(0.858294 -0.000870494 -0.0638893)
(0.984962 -0.0306694 -0.147816)
(0.833067 -0.0413263 -0.0416402)
(0.895042 0.00913664 0.000908388)
(0.873272 0.0046627 0.00474077)
(0.70181 -0.00198683 -0.0267687)
(0.694319 0.00915945 -0.0186071)
(0.711493 0.026722 0.0174192)
(0.68598 0.0104774 -0.0209993)
(0.72536 0.0239268 -0.0202758)
(0.776635 0.0293375 0.00787011)
(0.825246 0.0170256 0.0468017)
(0.832787 0.0205282 0.0809764)
(0.787019 0.0279511 0.0274443)
(0.787433 0.0160278 0.0317055)
(0.83771 -0.00792216 0.0143656)
(0.910592 -0.0363502 -0.00388535)
(0.901339 0.0140171 0.0425039)
(0.826721 0.0306523 -0.00330671)
(0.760272 0.0256286 -0.0274405)
(0.749193 -0.00399145 -0.0493345)
(0.716504 0.00459985 -0.0560146)
(0.772667 -0.0124873 -0.0644855)
(0.833906 0.0130018 0.00731958)
(0.839728 0.00528812 0.00504641)
(0.896908 0.0185243 0.026218)
(0.954373 -0.00217392 -0.0186328)
(0.883146 -0.0214116 0.0136067)
(0.958667 -0.0108172 0.104805)
(0.955457 -0.00652838 0.0637738)
(0.885132 0.0148813 0.00376686)
(0.869084 0.033239 -0.0243365)
(0.87472 0.00462025 -0.0651819)
(0.95651 -0.0383931 -0.147337)
(0.842949 -0.0417195 -0.0578102)
(0.891607 0.00190605 -0.00163032)
(0.813583 4.39302e-06 0.0353894)
(0.734756 -0.00160369 -0.0137909)
(0.687303 0.0086057 -0.00564994)
(0.731181 0.0327328 0.0135535)
(0.718053 0.0134462 -0.0086976)
(0.720343 0.0115797 -0.0455965)
(0.701913 0.0570555 0.00918376)
(0.73246 0.0557042 0.0150713)
(0.789062 0.0683555 0.0296652)
(0.795143 0.0430124 0.0175571)
(0.783414 0.0245827 0.025711)
(0.893553 -0.0241369 0.0103333)
(0.94156 -0.0253535 0.00518558)
(0.927515 0.013566 0.0408866)
(0.882962 0.0307396 0.0262091)
(0.804485 0.0268558 -0.0239743)
(0.758589 0.00123983 -0.0582752)
(0.749704 0.000393332 -0.0577367)
(0.728779 0.00616319 -0.0692759)
(0.802192 0.0477751 -0.0130553)
(0.818552 0.0203657 -0.0227759)
(0.893677 0.0206086 0.0127022)
(0.894756 0.0129423 -0.0354575)
(0.871526 -0.0269473 0.0118994)
(0.962404 -0.0319808 0.0890337)
(0.989988 -0.0056513 0.0719811)
(0.895274 0.00235139 0.0213052)
(0.885709 0.0442151 -0.029402)
(0.89953 -0.0299039 -0.109217)
(1.05073 -0.0541808 -0.11838)
(0.884157 -0.0275662 -0.0906464)
(0.842241 -0.00106489 -0.0171402)
(0.847375 -0.000639831 0.0227086)
(0.791548 -0.00178665 -0.0151164)
(0.764368 0.012227 -0.0212623)
(0.738318 0.0256038 -0.00262311)
(0.764453 0.0251213 -0.0112962)
(0.754809 0.0249193 -0.05313)
(0.716984 0.0600989 0.00019313)
(0.849828 0.0299723 0.0614158)
(0.828339 0.0375025 0.0573899)
(0.842419 0.00577457 0.00766545)
(0.834867 0.00152957 0.0118937)
(0.860882 -0.0156652 0.00146101)
(0.913292 -0.0102243 0.0158816)
(0.908793 0.00128482 0.0323743)
(0.884836 0.022352 0.0306234)
(0.86342 0.020898 -0.00180159)
(0.835224 -0.00311589 -0.0193128)
(0.784855 -0.00981889 -0.0751495)
(0.776096 -0.0149922 -0.0909237)
(0.84095 0.0222738 -0.0205509)
(0.897658 -0.00885155 0.00207146)
(0.972727 -0.00168532 0.00643777)
(0.988166 0.0148412 -0.029747)
(0.897525 -0.0138091 0.0140582)
(1.00777 -0.0270456 0.067551)
(1.01748 -0.0057312 0.0786598)
(0.908845 0.00715972 0.0212108)
(0.89558 0.0563005 -0.0354253)
(0.905838 0.0169758 -0.0597153)
(1.01792 -0.0366947 -0.134779)
(0.91945 -0.0383447 -0.104351)
(0.889822 -0.010271 -0.00461759)
(0.873476 -0.00207169 0.010977)
(0.847413 0.00178051 -0.0191862)
(0.777713 0.00771157 -0.0305717)
(0.771137 0.025665 -0.0136063)
(0.785455 0.0297016 0.00346245)
(0.76645 0.0319767 -0.0598799)
(0.737523 0.0503632 -0.0372044)
(0.752644 0.0680242 0.0204076)
(0.8014 0.0869452 0.00573576)
(0.805711 0.0441972 -0.0212781)
(0.800074 0.0263409 0.0106294)
(0.891011 -0.0220887 0.0197723)
(0.940333 -0.0149648 0.00924983)
(0.936916 0.0068751 0.0329827)
(0.905753 0.0264508 0.0135571)
(0.89619 0.0181687 0.00883168)
(0.884005 -0.00407979 -0.00225265)
(0.817189 -0.00677798 -0.0456604)
(0.763255 0.012402 -0.0804124)
(0.817256 0.0561435 -0.0343162)
(0.868931 0.0084364 -0.00901688)
(0.878482 0.0230557 -0.00873889)
(0.906247 0.0242425 -0.0419697)
(0.910704 -0.00672049 0.00613236)
(0.987853 -0.0509954 0.0475409)
(1.03725 -0.0132481 0.0572792)
(0.952172 -0.00530373 0.0294065)
(0.909241 0.0608069 -0.00496904)
(0.920624 0.0228957 -0.054283)
(1.05265 -0.0361772 -0.12512)
(0.897946 -0.0291303 -0.0698938)
(0.888781 -0.000447065 -0.0180825)
(0.896683 -0.00308551 0.00295649)
(0.922272 -0.00707698 -0.0532592)
(0.849721 0.00851434 -0.0638946)
(0.858299 0.0269263 -0.013112)
(0.805753 0.0328231 0.0205669)
(0.791882 0.0290144 -0.056283)
(0.760197 0.0517889 -0.0430153)
(0.865094 0.0454862 0.0530087)
(0.83485 0.0597087 0.040485)
(0.833575 0.0440428 -0.00696146)
(0.845087 0.0109703 0.0291806)
(0.890644 -0.0179803 -0.00471109)
(0.953199 -0.0241608 -0.00774551)
(0.954532 0.00528985 0.0350018)
(0.932608 0.0283614 0.0271218)
(0.921358 0.0158813 0.0104966)
(0.928923 -0.00518179 0.0101616)
(0.854923 -0.00636025 -0.0400532)
(0.790088 -0.00207591 -0.094196)
(0.820972 0.0559216 -0.0460974)
(0.852406 0.0280379 -0.0370617)
(0.868657 0.0256691 -0.019602)
(0.903972 0.0294076 -0.04859)
(0.913463 -0.0460098 0.00705059)
(1.0384 -0.0434353 0.0884837)
(1.04111 -0.00647972 0.0838262)
(0.941807 0.0207057 0.0276605)
(0.930307 0.0723751 -0.0698029)
(0.96715 -0.00894562 -0.0796542)
(1.08195 -0.0737228 -0.105634)
(0.971866 -0.0302247 -0.0891992)
(0.904189 -0.0133542 -0.00510935)
(0.921103 -0.000723823 -0.00529133)
(0.936627 0.00497909 -0.032998)
(0.917804 0.00882682 -0.0626351)
(0.871771 0.0221455 -0.0272639)
(0.830482 0.041173 0.0421742)
(0.817172 0.026393 -0.0508303)
(0.764797 0.0725003 -0.0144609)
(0.783423 0.089925 0.0320288)
(0.809138 0.100261 -0.000351393)
(0.832471 0.0567443 -0.0158378)
(0.856231 0.0255275 -0.00857848)
(0.902522 -0.00991594 0.0355463)
(1.01834 -0.0376514 -0.00167558)
(0.96985 0.0131558 0.0348158)
(0.949206 0.0424516 0.0193401)
(0.950067 0.00191108 -0.00263875)
(0.947607 -0.00607918 -0.00123068)
(0.871472 -0.017815 -0.0690332)
(0.833381 -0.0100732 -0.104581)
(0.829202 0.0185267 -0.0713839)
(0.882274 0.0154247 -0.0300668)
(0.935699 -0.0100756 -0.0238912)
(0.983689 0.0334489 -0.0426821)
(0.947511 0.00748345 -0.0113687)
(0.999711 -0.0698682 0.0436667)
(1.02974 -0.00990759 0.0404558)
(0.922082 0.0528458 0.0213364)
(0.947829 0.0808822 -0.0638381)
(0.994502 -0.00354463 -0.0671379)