/*--------------------------------*- C++ -*----------------------------------*\
| =========                 |                                                 |
| \\      /  F ield         | OpenFOAM: The Open Source CFD Toolbox           |
|  \\    /   O peration     | Version:  v2006                                 |
|   \\  /    A nd           | Website:  www.openfoam.com                      |
|    \\/     M anipulation  |                                                 |
\*---------------------------------------------------------------------------*/
FoamFile
{
    version     2.0;
    format      ascii;
    class       volVectorField;
    location    "0";
    object      U;
}
// * * * * * * * * * * * * * * * * * * * * * * * * * * * * * * * * * * * * * //

dimensions      [0 1 -1 0 0 0 0];

internalField   uniform VEC_VEL;

boundaryField
{
    #includeEtc "caseDicts/setConstraintTypes"

    inlet
    {
        type            freestream;
        freestreamValue uniform VEC_VEL;
    }
    
    outlet
    {
        type            inletOutlet;
        inletValue      uniform (0 0 0);
        value           uniform VEC_VEL;
    }

    airplane
    {
        type            noSlip;
    }

    lowerWall
    {
        type            slip;
    }
    
    upperWall
    {
        type            slip;
    }

    frontAndBack
    {
        type            slip;
    }
}


// ************************************************************************* //
